# vtk DataFile Version 3.0
2D scalar data
ASCII
DATASET UNSTRUCTURED_GRID
POINTS 101 float
0.000000 0.000000 0
5.000000 0.000000 0
5.000000 1.000000 0
0.000000 1.000000 0
2.000000 0.000000 0
2.500000 1.000000 0
3.500000 0.000000 0
3.750000 1.000000 0
1.250000 1.000000 0
1.000000 0.000000 0
2.750000 0.000000 0
3.125000 1.000000 0
2.812500 0.546875 0
2.812500 1.000000 0
2.656250 0.773438 0
1.875000 1.000000 0
2.332504 0.383004 0
2.549405 0.532591 0
2.187500 1.000000 0
2.375000 0.000000 0
2.694875 0.283309 0
2.277021 0.695501 0
3.125000 0.000000 0
2.562500 0.000000 0
3.013630 0.299083 0
2.968750 0.773438 0
3.437500 0.617322 0
3.225762 0.763349 0
3.088505 0.545468 0
3.437500 1.000000 0
1.857214 0.459792 0
2.480104 0.211079 0
2.937500 0.000000 0
3.312500 0.240096 0
3.593750 0.808661 0
4.250000 0.000000 0
4.375000 1.000000 0
3.907694 0.392822 0
3.699987 0.562439 0
3.524674 0.379112 0
2.108263 0.504365 0
2.010268 0.760953 0
2.022345 0.259006 0
2.187500 0.000000 0
2.223704 0.205244 0
3.288540 0.457359 0
3.875000 0.000000 0
4.062500 0.000000 0
3.722466 0.210467 0
1.500000 0.000000 0
1.750000 0.000000 0
1.625000 0.271544 0
1.821533 0.197471 0
1.497221 0.666515 0
1.562500 1.000000 0
1.743766 0.767944 0
1.250000 0.279625 0
1.637327 0.493687 0
1.406250 1.000000 0
1.435744 0.194121 0
0.625000 1.000000 0
0.748834 0.476125 0
1.112665 0.639813 0
0.962900 0.284739 0
1.109122 0.432186 0
1.296412 0.776028 0
0.937500 1.000000 0
0.850994 0.735244 0
1.093750 1.000000 0
4.412845 0.487457 0
0.000000 0.500000 0
0.250000 1.000000 0
0.000000 0.750000 0
0.437500 0.679105 0
0.650001 0.664789 0
0.204238 0.625000 0
0.500000 0.000000 0
0.394930 0.332759 0
0.750000 0.000000 0
0.728535 0.238011 0
0.250000 0.000000 0
0.000000 0.250000 0
0.535861 0.194291 0
0.437500 1.000000 0
0.213735 0.213735 0
4.062500 1.000000 0
3.982948 0.696959 0
4.150140 0.494212 0
4.111435 0.246199 0
4.287793 0.735892 0
4.625000 0.000000 0
4.371348 0.230390 0
5.000000 0.500000 0
5.000000 0.250000 0
4.708959 0.375000 0
4.687500 1.000000 0
4.580442 0.727508 0
4.581277 0.206688 0
4.783836 0.601980 0
5.000000 0.750000 0
4.796278 0.815660 0

CELLS 154 616
3 52 4 42
3 12 25 14
3 56 63 9
3 28 45 27
3 7 34 86
3 38 86 34
3 40 42 44
3 53 62 64
3 20 23 10
3 24 12 20
3 25 27 11
3 20 10 32
3 41 30 40
3 25 11 13
3 13 5 14
3 12 14 17
3 16 21 40
3 18 21 5
3 21 14 5
3 23 31 19
3 12 17 20
3 17 21 16
3 16 40 44
3 31 17 16
3 21 17 14
3 41 18 15
3 6 33 22
3 32 22 24
3 31 23 20
3 11 27 29
3 24 28 12
3 14 25 13
3 22 33 24
3 89 96 36
3 28 27 25
3 29 34 7
3 12 28 25
3 24 33 45
3 65 58 8
3 34 27 26
3 59 49 51
3 17 31 20
3 16 44 31
3 48 38 39
3 20 32 24
3 45 26 27
3 37 88 87
3 27 34 29
3 39 38 26
3 26 38 34
3 89 85 86
3 87 88 91
3 26 45 39
3 38 37 86
3 33 6 39
3 6 46 48
3 41 40 21
3 42 40 30
3 18 41 21
3 41 15 55
3 51 50 52
3 31 44 19
3 4 44 42
3 4 43 44
3 44 43 19
3 24 45 28
3 39 45 33
3 6 48 39
3 48 37 38
3 46 47 88
3 88 48 46
3 30 57 51
3 49 50 51
3 52 30 51
3 9 49 59
3 4 52 50
3 30 52 42
3 30 41 55
3 77 73 75
3 54 55 15
3 55 54 53
3 55 53 57
3 56 59 57
3 62 53 65
3 55 57 30
3 56 57 53
3 57 59 51
3 53 54 58
3 9 59 56
3 75 72 70
3 61 62 67
3 9 63 78
3 73 74 60
3 64 61 63
3 64 63 56
3 79 78 63
3 53 64 56
3 61 64 62
3 58 65 53
3 68 65 8
3 68 67 62
3 68 66 67
3 60 67 66
3 92 94 93
3 65 68 62
3 100 99 2
3 74 61 67
3 73 83 71
3 71 3 72
3 75 71 72
3 80 84 0
3 60 74 67
3 77 74 73
3 80 76 82
3 71 75 73
3 84 75 70
3 74 77 61
3 78 79 82
3 77 82 61
3 79 63 61
3 79 61 82
3 82 77 84
3 84 70 81
3 81 0 84
3 78 82 76
3 82 84 80
3 73 60 83
3 84 77 75
3 87 86 37
3 89 86 87
3 7 86 85
3 88 37 48
3 89 87 69
3 47 35 88
3 88 35 91
3 89 69 96
3 89 36 85
3 35 90 91
3 91 69 87
3 97 91 90
3 90 1 93
3 97 93 94
3 100 96 98
3 69 91 97
3 69 94 96
3 36 96 95
3 92 98 94
3 93 97 90
3 69 97 94
3 100 2 95
3 96 94 98
3 96 100 95
3 98 92 99
3 98 99 100

CELL_TYPES 154
5
5
5
5
5
5
5
5
5
5
5
5
5
5
5
5
5
5
5
5
5
5
5
5
5
5
5
5
5
5
5
5
5
5
5
5
5
5
5
5
5
5
5
5
5
5
5
5
5
5
5
5
5
5
5
5
5
5
5
5
5
5
5
5
5
5
5
5
5
5
5
5
5
5
5
5
5
5
5
5
5
5
5
5
5
5
5
5
5
5
5
5
5
5
5
5
5
5
5
5
5
5
5
5
5
5
5
5
5
5
5
5
5
5
5
5
5
5
5
5
5
5
5
5
5
5
5
5
5
5
5
5
5
5
5
5
5
5
5
5
5
5
5
5
5
5
5
5
5
5
5
5
5
5

POINT_DATA 101
SCALARS pressure float 1
LOOKUP_TABLE default
0
0
0
0
0
0
0
0
0
0
0
0
0
0
0
0
0
0
0
0
0
0
0
0
0
0
0
0
0
0
0
0
0
0
0
0
0
0
0
0
0
0
0
0
0
0
0
0
0
0
0
0
0
0
0
0
0
0
0
0
0
0
0
0
0
0
0
0
0
0
0
0
0
0
0
0
0
0
0
0
0
0
0
0
0
0
0
0
0
0
0
0
0
0
0
0
0
0
0
0
0
VECTORS displacement float
0 0 0
1.95899 12.4031 0
-1.41722 12.3915 0
0 0 0
1.30845 2.94804 0
-1.20894 4.25529 0
1.85923 7.39536 0
-1.40325 8.20298 0
-0.783775 1.33842 0
0.864498 0.932243 0
1.70327 5.0263 0
-1.34239 6.1635 0
0.0709618 5.17062 0
-1.28661 5.18105 0
-0.587658 4.69319 0
-1.05476 2.61795 0
0.489492 3.77477 0
0.0976874 4.38191 0
-1.15574 3.40276 0
1.54877 3.94773 0
0.851658 4.82443 0
-0.352343 3.62062 0
1.81258 6.17749 0
1.64672 4.47476 0
0.836379 5.8023 0
-0.612453 5.65491 0
-0.141408 7.1667 0
-0.600948 6.47734 0
0.0815237 6.03406 0
-1.3764 7.17306 0
0.218686 2.54719 0
1.00613 4.20687 0
1.75784 5.58391 0
1.05845 6.77215 0
-0.764807 7.68161 0
1.93063 9.88098 0
-1.41425 10.2908 0
0.603322 8.7309 0
0.0409656 8.03689 0
0.62793 7.46219 0
0.137455 3.16929 0
-0.497558 2.9217 0
0.722756 2.96865 0
1.43295 3.44985 0
0.920489 3.49028 0
0.363071 6.68174 0
1.91284 8.64862 0
1.91856 9.26281 0
1.19177 8.12311 0
1.03403 1.84543 0
1.1457 2.36909 0
0.569662 2.05203 0
0.788843 2.49363 0
-0.217283 1.75905 0
-0.960755 1.92723 0
-0.485147 2.29514 0
0.467274 1.32907 0
0.117706 2.04179 0
-0.900028 1.61349 0
0.654959 1.68751 0
-0.445682 0.419507 0
0.0797167 0.486605 0
-0.146162 1.05346 0
0.395249 0.835275 0
0.189119 1.05842 0
-0.389921 1.36504 0
-0.55864 0.811381 0
-0.245022 0.655934 0
-0.670223 1.03963 0
0.302432 10.4178 0
0 0 0
-0.170263 0.103116 0
0 0 0
-0.0747649 0.186273 0
-0.096797 0.385099 0
-0.0147069 0.0505436 0
0.465864 0.335009 0
0.136262 0.138025 0
0.741208 0.577344 0
0.370812 0.50806 0
0.240355 0.141181 0
0 0 0
0.30208 0.278486 0
-0.312763 0.272825 0
0.116506 0.0650442 0
-1.40934 9.24387 0
-0.399682 8.97682 0
0.275544 9.53825 0
1.10019 9.41794 0
-0.529621 9.99719 0
1.9452 11.1327 0
1.16244 10.282 0
0.262861 12.3949 0
1.1071 12.3978 0
0.681995 11.4139 0
-1.41621 11.3402 0
-0.502141 10.9801 0
1.2479 10.9844 0
-0.0806227 11.6655 0
-0.577129 12.3923 0
-0.797772 11.7063 0
VECTORS error float
0 1e-3 0
1.95661 1e-3 0
-1.4196 1e-3 0
0 1e-3 0
1.30749 1e-3 0
-1.21013 1e-3 0
1.85756 1e-3 0
-1.40503 1e-3 0
-0.78437 1e-3 0
0.864022 1e-3 0
1.70196 1e-3 0
-1.34387 1e-3 0
0.0696225 1e-3 0
-1.28795 1e-3 0
-0.588923 1e-3 0
-1.05566 1e-3 0
0.488381 1e-3 0
0.0964734 1e-3 0
-1.15678 1e-3 0
1.54764 1e-3 0
0.850375 1e-3 0
-0.353428 1e-3 0
1.81109 1e-3 0
1.6455 1e-3 0
0.834944 1e-3 0
-0.613867 1e-3 0
-0.143045 1e-3 0
-0.602484 1e-3 0
0.080053 1e-3 0
-1.37804 1e-3 0
0.217801 1e-3 0
1.00494 1e-3 0
1.75644 1e-3 0
1.05688 1e-3 0
-0.766518 1e-3 0
1.9286 1e-3 0
-1.41633 1e-3 0
0.601461 1e-3 0
0.0392037 1e-3 0
0.626251 1e-3 0
0.136451 1e-3 0
-0.498515 1e-3 0
0.721793 1e-3 0
1.43191 1e-3 0
0.91943 1e-3 0
0.361505 1e-3 0
1.911 1e-3 0
1.91663 1e-3 0
1.18999 1e-3 0
1.03332 1e-3 0
1.14487 1e-3 0
0.568889 1e-3 0
0.787976 1e-3 0
-0.217996 1e-3 0
-0.961499 1e-3 0
-0.485977 1e-3 0
0.466679 1e-3 0
0.116927 1e-3 0
-0.900698 1e-3 0
0.654275 1e-3 0
-0.445979 1e-3 0
0.0793601 1e-3 0
-0.146691 1e-3 0
0.394791 1e-3 0
0.188591 1e-3 0
-0.390538 1e-3 0
-0.559086 1e-3 0
-0.245428 1e-3 0
-0.670744 1e-3 0
0.30033 1e-3 0
0 1e-3 0
-0.170382 1e-3 0
0 1e-3 0
-0.0749732 1e-3 0
-0.0971065 1e-3 0
-0.0148041 1e-3 0
0.465626 1e-3 0
0.136074 1e-3 0
0.740851 1e-3 0
0.370465 1e-3 0
0.240236 1e-3 0
0 1e-3 0
0.301825 1e-3 0
-0.312972 1e-3 0
0.116405 1e-3 0
-1.41128 1e-3 0
-0.401579 1e-3 0
0.273568 1e-3 0
1.09823 1e-3 0
-0.531663 1e-3 0
1.943 1e-3 0
1.16036 1e-3 0
0.26048 1e-3 0
1.10472 1e-3 0
0.679753 1e-3 0
-1.41844 1e-3 0
-0.504322 1e-3 0
1.24572 1e-3 0
-0.0829007 1e-3 0
-0.57951 1e-3 0
-0.800056 1e-3 0
