# vtk DataFile Version 3.0
2D scalar data
ASCII
DATASET UNSTRUCTURED_GRID
POINTS 349 float
0.000000 0.000000 0
5.000000 0.000000 0
5.000000 1.000000 0
0.000000 1.000000 0
2.000000 0.000000 0
2.500000 1.000000 0
3.500000 0.000000 0
3.750000 1.000000 0
1.250000 1.000000 0
1.000000 0.000000 0
2.750000 0.000000 0
3.125000 1.000000 0
2.812500 0.546875 0
2.812500 1.000000 0
2.656250 0.773438 0
2.898633 0.773438 0
2.777441 0.857018 0
2.656250 1.000000 0
2.667541 0.886719 0
2.777441 0.689857 0
3.322624 0.482594 0
2.968750 1.000000 0
2.895494 0.898540 0
3.058535 0.840040 0
3.074270 0.577011 0
3.437500 1.000000 0
3.020632 0.705787 0
2.905126 0.641315 0
3.281250 0.841289 0
3.170480 0.735959 0
3.169629 0.887668 0
3.341938 0.666555 0
3.271954 0.740154 0
3.215315 0.600229 0
4.250000 0.000000 0
3.472099 0.809668 0
3.281250 1.000000 0
3.593750 1.000000 0
3.515625 0.915891 0
3.387805 0.892655 0
1.875000 1.000000 0
2.332504 0.383004 0
3.125000 0.000000 0
2.549405 0.532591 0
2.678238 0.589744 0
3.106958 0.289149 0
2.381575 0.751167 0
2.375000 0.000000 0
2.694875 0.283309 0
2.703587 0.437451 0
2.900026 0.349031 0
2.784837 0.355541 0
2.845675 0.165634 0
2.702645 0.137803 0
2.484066 0.199091 0
2.562500 0.000000 0
2.603740 0.205482 0
2.547054 0.364133 0
2.656250 0.000000 0
2.603400 0.447592 0
2.446482 0.449783 0
2.410607 0.599738 0
2.434415 0.312581 0
2.268957 0.182093 0
2.374293 0.218671 0
2.536300 0.682527 0
2.937500 0.000000 0
2.976713 0.226552 0
2.949046 0.114671 0
3.096851 0.143381 0
3.312500 0.000000 0
3.292036 0.203083 0
3.218750 0.000000 0
3.183001 0.210643 0
2.468750 0.000000 0
2.843750 0.000000 0
3.406250 0.112019 0
3.875000 0.409081 0
3.481664 0.323760 0
3.407582 0.230845 0
3.350990 0.351957 0
3.875000 0.000000 0
3.211105 0.389981 0
3.586072 0.167274 0
3.160011 0.496170 0
3.022384 0.436090 0
3.507800 0.101768 0
2.933131 0.521205 0
3.592959 0.568999 0
3.687500 0.000000 0
3.682978 0.345004 0
3.486220 0.666078 0
3.413747 0.566021 0
3.442287 0.443372 0
3.781250 0.171234 0
3.738786 0.497518 0
3.626169 0.452259 0
3.771654 0.399023 0
4.375000 1.000000 0
3.771212 0.748161 0
3.661155 0.859053 0
3.626875 0.713510 0
3.724007 0.626849 0
3.937471 0.613626 0
3.832851 0.654336 0
4.062500 1.000000 0
3.574936 0.802552 0
3.854787 0.527067 0
3.789657 0.876527 0
3.906250 1.000000 0
3.984375 0.811865 0
3.872066 0.799177 0
3.984375 1.000000 0
3.587894 0.281564 0
3.684807 0.112755 0
4.045338 0.204540 0
4.312833 0.629482 0
3.919858 0.135841 0
4.062500 0.000000 0
3.924199 0.276856 0
4.021283 0.099532 0
4.166836 0.121449 0
4.625000 0.000000 0
4.249495 0.372689 0
4.063518 0.403960 0
3.975990 0.494061 0
4.171773 0.259042 0
4.024344 0.306993 0
4.142001 0.567768 0
4.399726 0.186548 0
4.296642 0.257046 0
4.437500 0.000000 0
4.293138 0.118737 0
4.208745 0.828982 0
3.806652 0.286401 0
4.167678 0.454761 0
4.293233 0.498109 0
4.061752 0.688889 0
4.194514 0.689705 0
4.098293 0.797711 0
4.531250 0.116082 0
5.000000 0.500000 0
4.646580 0.512538 0
4.468527 0.539103 0
4.420495 0.374972 0
5.000000 0.250000 0
4.391661 0.472504 0
4.527885 0.267778 0
4.542991 0.428218 0
4.687500 1.000000 0
4.508430 0.787138 0
4.440884 0.670778 0
4.595425 0.658854 0
4.357073 0.797214 0
5.000000 0.750000 0
4.689681 0.816413 0
4.531250 1.000000 0
4.218750 1.000000 0
4.605871 0.759577 0
4.439405 0.892121 0
4.609375 0.907265 0
4.302427 0.904230 0
4.140625 0.918769 0
4.843750 1.000000 0
4.765625 0.909122 0
4.841848 0.769223 0
5.000000 0.875000 0
4.732048 0.684095 0
5.000000 0.625000 0
4.860893 0.631283 0
4.758090 0.564053 0
4.793441 0.341087 0
4.744247 0.447573 0
4.878068 0.444789 0
5.000000 0.375000 0
4.904198 0.312500 0
4.812500 0.000000 0
4.868590 0.153245 0
4.881262 0.881412 0
4.651657 0.337056 0
4.726353 0.205294 0
5.000000 0.125000 0
4.906250 0.000000 0
4.613663 0.193795 0
4.718750 0.000000 0
1.924194 0.401644 0
2.117946 0.622125 0
2.267324 0.650764 0
2.187500 1.000000 0
2.219319 0.497265 0
2.159392 0.809835 0
2.339139 0.503371 0
2.063654 0.474463 0
2.179097 0.707054 0
2.082113 0.269158 0
2.192857 0.357863 0
2.187431 0.251155 0
2.187500 0.000000 0
2.111765 0.125557 0
2.030502 0.368000 0
2.343750 1.000000 0
2.265625 0.891292 0
2.421875 0.884584 0
2.545090 0.841721 0
2.480498 0.765448 0
2.031250 1.000000 0
1.953125 0.809100 0
2.054474 0.732307 0
1.881596 0.609424 0
1.999164 0.627071 0
2.109375 0.914388 0
1.953125 0.920536 0
1.953294 0.515866 0
1.500000 0.000000 0
2.281250 0.000000 0
2.269940 0.776828 0
1.562500 1.000000 0
1.750000 0.000000 0
1.718750 0.824619 0
1.839113 0.864818 0
1.817261 0.729952 0
1.876731 0.184710 0
1.999828 0.177305 0
1.944448 0.283553 0
1.501500 0.423243 0
1.664723 0.571097 0
1.766907 0.625640 0
1.784080 0.470478 0
1.792232 0.315218 0
1.645982 0.427764 0
1.580442 0.211339 0
1.576710 0.330605 0
1.680992 0.274177 0
1.699302 0.133012 0
1.625000 0.000000 0
1.875000 0.000000 0
1.562500 0.097189 0
1.805902 0.097476 0
1.773059 0.210195 0
1.718750 1.000000 0
1.640625 0.912310 0
1.406250 0.782147 0
1.567267 0.768307 0
1.664852 0.693846 0
1.406250 1.000000 0
1.472350 0.607598 0
1.496000 0.882736 0
1.328125 0.891074 0
0.625000 1.000000 0
0.937996 0.528783 0
1.156047 0.685175 0
1.268642 0.765931 0
0.937500 1.000000 0
1.302713 0.599556 0
1.093750 1.000000 0
1.127968 0.843195 0
1.220974 0.896702 0
1.481216 0.710746 0
1.136166 0.482689 0
1.392419 0.500478 0
1.265400 0.475623 0
1.250000 0.000000 0
1.363205 0.187000 0
1.464180 0.267393 0
1.190405 0.289327 0
1.469573 0.157009 0
1.353772 0.360990 0
1.251030 0.373165 0
0.957752 0.731444 0
1.192603 0.579367 0
1.296018 0.270608 0
1.219193 0.144456 0
1.036322 0.183413 0
1.125000 0.000000 0
1.136132 0.203246 0
1.066820 0.750825 0
1.038496 0.618866 0
1.556600 0.526437 0
0.989323 0.868866 0
0.781250 1.000000 0
0.822525 0.834848 0
0.859375 1.000000 0
0.703125 0.892741 0
0.000000 0.500000 0
0.250000 1.000000 0
0.628544 0.586849 0
0.698804 0.731756 0
0.895012 0.905361 0
0.421202 0.776869 0
0.437500 1.000000 0
0.550351 0.863546 0
0.790752 0.597687 0
0.553263 0.712837 0
0.531250 1.000000 0
0.440535 0.887617 0
0.500000 0.000000 0
0.733670 0.283930 0
0.897948 0.634980 0
0.803563 0.433285 0
0.815159 0.717904 0
0.715205 0.509100 0
0.905254 0.294667 0
0.750000 0.000000 0
1.048553 0.330655 0
1.139699 0.379392 0
0.953131 0.407318 0
0.875000 0.000000 0
0.812500 0.146029 0
0.933325 0.111352 0
1.375000 0.000000 0
1.313572 0.089997 0
0.000000 0.750000 0
0.325242 0.464030 0
0.531243 0.391222 0
0.458543 0.570755 0
0.288600 0.646406 0
0.439120 0.458404 0
0.550665 0.503573 0
0.354030 0.564683 0
0.247480 0.820821 0
0.167622 0.527231 0
0.137379 0.678923 0
0.000000 0.250000 0
0.226121 0.723731 0
0.117207 0.808238 0
0.000000 0.875000 0
0.000000 0.625000 0
0.180163 0.330358 0
0.220832 0.431785 0
0.000000 0.375000 0
0.343750 1.000000 0
0.331176 0.891304 0
0.250000 0.000000 0
0.371801 0.267932 0
0.125000 0.125000 0
0.556357 0.194002 0
0.674795 0.118577 0
0.625000 0.000000 0
0.000000 0.125000 0
0.125000 0.000000 0
0.275197 0.150197 0
0.375000 0.000000 0
0.262849 0.258829 0
0.414427 0.134456 0
0.113245 0.238245 0
0.613316 0.301464 0
0.688185 0.393542 0
0.485815 0.285228 0
0.125000 1.000000 0

CELLS 605 2420
3 4 198 222
3 15 16 19
3 298 301 305
3 23 15 26
3 116 143 151
3 111 109 108
3 195 196 41
3 336 296 345
3 53 10 52
3 51 52 50
3 21 23 11
3 73 45 69
3 61 60 43
3 22 16 15
3 14 16 18
3 51 12 49
3 16 22 13
3 202 203 5
3 19 16 14
3 13 18 16
3 13 17 18
3 203 17 5
3 14 65 44
3 27 19 12
3 113 79 83
3 23 30 11
3 22 15 23
3 21 22 23
3 13 22 21
3 27 24 26
3 30 36 11
3 67 50 52
3 29 24 33
3 27 26 15
3 39 35 38
3 29 28 30
3 19 27 15
3 27 12 87
3 23 26 29
3 32 28 29
3 26 24 29
3 33 31 32
3 29 30 23
3 36 30 28
3 79 78 80
3 32 35 28
3 33 32 29
3 35 32 31
3 84 33 24
3 20 31 33
3 88 92 93
3 31 92 91
3 37 25 38
3 39 38 25
3 39 36 28
3 37 38 100
3 106 91 101
3 36 39 25
3 28 35 39
3 19 44 12
3 187 189 191
3 204 61 65
3 18 203 14
3 73 82 45
3 55 54 74
3 14 44 19
3 57 48 59
3 87 50 85
3 73 72 71
3 210 206 207
3 191 41 60
3 44 49 12
3 54 64 47
3 60 62 57
3 59 44 43
3 51 49 48
3 48 53 52
3 85 45 82
3 52 51 48
3 12 51 50
3 67 68 69
3 45 85 67
3 56 53 48
3 58 10 53
3 56 48 57
3 54 62 64
3 49 59 48
3 55 53 56
3 55 56 54
3 57 59 60
3 54 56 57
3 44 59 49
3 53 55 58
3 60 59 43
3 43 65 61
3 62 60 41
3 61 46 187
3 60 61 191
3 41 63 64
3 54 57 62
3 199 195 192
3 214 47 63
3 41 64 62
3 47 64 63
3 44 65 43
3 14 203 65
3 52 68 67
3 75 66 68
3 68 42 69
3 75 68 52
3 42 68 66
3 76 71 70
3 45 67 69
3 76 70 6
3 72 70 71
3 82 73 71
3 72 73 69
3 69 42 72
3 82 71 80
3 119 94 117
3 54 47 74
3 52 10 75
3 71 76 79
3 181 145 177
3 91 88 101
3 86 76 6
3 91 35 31
3 79 76 86
3 78 93 80
3 80 20 82
3 71 79 80
3 84 20 33
3 114 94 113
3 82 84 85
3 94 114 81
3 94 90 113
3 84 24 85
3 20 84 82
3 24 27 87
3 85 50 67
3 89 86 6
3 79 86 83
3 50 87 12
3 24 87 85
3 90 97 96
3 96 95 88
3 97 95 96
3 89 114 86
3 79 113 78
3 92 31 20
3 95 102 88
3 93 92 20
3 88 91 92
3 80 93 20
3 113 96 78
3 117 94 81
3 119 77 134
3 37 100 7
3 102 101 88
3 88 93 96
3 78 96 93
3 134 90 94
3 107 97 77
3 104 102 107
3 119 127 77
3 99 102 104
3 106 38 35
3 100 99 108
3 99 100 101
3 106 101 100
3 95 97 107
3 99 101 102
3 127 119 115
3 108 7 100
3 107 102 95
3 103 110 111
3 38 106 100
3 139 137 138
3 91 106 35
3 125 77 124
3 104 107 103
3 103 111 104
3 109 7 108
3 103 137 110
3 99 111 108
3 112 109 110
3 104 111 99
3 109 111 110
3 113 83 114
3 110 105 112
3 96 113 90
3 86 114 83
3 81 114 89
3 115 117 120
3 162 110 139
3 120 121 115
3 146 116 136
3 121 120 118
3 119 117 115
3 126 124 127
3 81 118 120
3 77 97 134
3 81 120 117
3 121 118 34
3 126 130 123
3 115 121 126
3 126 132 130
3 124 128 125
3 136 116 128
3 136 128 135
3 107 125 103
3 77 125 107
3 124 135 128
3 132 121 34
3 126 123 135
3 126 127 115
3 77 127 124
3 138 137 128
3 103 125 128
3 122 140 131
3 131 140 129
3 132 126 121
3 146 144 148
3 131 132 34
3 132 131 129
3 130 132 129
3 116 151 153
3 157 105 162
3 90 134 97
3 94 119 134
3 126 135 124
3 135 123 136
3 123 130 144
3 129 147 144
3 103 128 137
3 128 116 138
3 153 138 116
3 139 138 133
3 139 133 162
3 110 137 139
3 177 145 175
3 161 153 159
3 143 146 148
3 173 170 172
3 160 149 156
3 144 146 123
3 152 150 151
3 130 129 144
3 129 140 147
3 116 146 143
3 174 141 173
3 123 146 136
3 180 184 176
3 143 148 142
3 144 147 148
3 179 148 147
3 143 152 151
3 163 149 164
3 98 159 156
3 152 143 142
3 153 151 150
3 169 154 165
3 150 152 158
3 159 153 150
3 153 133 138
3 155 167 165
3 163 178 2
3 164 178 163
3 167 158 152
3 160 155 164
3 157 162 161
3 160 158 155
3 159 150 160
3 161 159 98
3 159 160 156
3 158 160 150
3 157 161 98
3 133 153 161
3 162 105 110
3 161 162 133
3 160 164 149
3 165 178 164
3 164 155 165
3 155 158 167
3 168 154 169
3 142 170 152
3 154 166 178
3 167 170 169
3 167 152 170
3 169 165 167
3 141 168 169
3 170 142 172
3 169 170 173
3 142 179 172
3 177 171 180
3 179 142 148
3 173 172 171
3 173 175 174
3 173 141 169
3 176 177 180
3 175 173 171
3 145 174 175
3 171 177 175
3 180 171 179
3 181 182 1
3 154 178 165
3 178 166 2
3 183 147 140
3 172 179 171
3 183 179 147
3 183 122 184
3 177 176 182
3 182 181 177
3 122 183 140
3 179 183 180
3 192 212 185
3 183 184 180
3 220 226 208
3 186 187 193
3 186 193 207
3 188 201 200
3 187 186 189
3 186 192 189
3 210 201 188
3 41 189 195
3 215 201 190
3 211 205 40
3 187 191 61
3 41 191 189
3 186 207 209
3 192 185 199
3 215 187 46
3 190 210 207
3 223 199 185
3 198 196 194
3 192 195 189
3 196 195 194
3 198 197 63
3 41 196 63
3 222 198 194
3 198 63 196
3 4 197 198
3 227 228 185
3 195 199 194
3 215 190 193
3 202 200 201
3 201 215 202
3 61 204 46
3 5 200 202
3 203 18 17
3 202 46 204
3 65 203 204
3 202 204 203
3 228 238 221
3 201 210 190
3 186 209 192
3 190 207 193
3 208 209 206
3 218 239 240
3 265 309 213
3 206 209 207
3 209 208 212
3 188 205 210
3 210 205 211
3 40 239 219
3 210 211 206
3 209 212 192
3 227 212 208
3 187 215 193
3 226 227 208
3 63 197 214
3 202 215 46
3 242 218 240
3 219 206 211
3 238 232 233
3 219 220 206
3 40 219 211
3 220 219 218
3 240 216 246
3 206 220 208
3 223 185 228
3 4 222 235
3 223 194 199
3 222 221 235
3 221 222 223
3 223 222 194
3 240 246 242
3 253 245 257
3 218 242 243
3 185 212 227
3 243 220 218
3 226 225 227
3 229 225 277
3 223 228 221
3 225 229 227
3 224 231 229
3 266 259 260
3 228 227 229
3 233 234 217
3 231 232 229
3 263 262 265
3 232 231 230
3 232 230 233
3 229 232 228
3 233 236 234
3 237 233 217
3 263 265 230
3 236 233 230
3 237 235 221
3 213 234 236
3 235 237 217
3 238 237 221
3 232 238 228
3 237 238 233
3 247 244 8
3 219 239 218
3 239 216 240
3 247 251 241
3 245 225 243
3 257 242 241
3 226 243 225
3 243 226 220
3 243 242 257
3 253 241 251
3 244 247 246
3 245 259 277
3 244 246 216
3 241 242 246
3 255 275 250
3 246 247 241
3 278 287 268
3 277 259 224
3 280 286 299
3 254 255 256
3 253 250 269
3 256 247 8
3 251 250 253
3 276 258 269
3 275 268 276
3 245 253 259
3 251 247 256
3 251 255 250
3 278 254 252
3 254 256 8
3 251 256 255
3 253 257 241
3 243 257 245
3 272 9 273
3 213 236 265
3 260 253 269
3 260 259 253
3 271 262 270
3 224 266 263
3 230 231 263
3 263 266 270
3 304 267 260
3 231 224 263
3 266 224 259
3 305 303 258
3 309 310 261
3 262 310 265
3 230 265 236
3 260 267 266
3 266 267 270
3 304 260 258
3 270 267 264
3 278 268 275
3 252 281 287
3 276 269 250
3 260 269 258
3 270 264 271
3 263 270 262
3 274 271 264
3 273 261 271
3 272 303 301
3 291 298 249
3 303 274 264
3 273 271 274
3 273 274 272
3 278 275 255
3 268 297 276
3 258 276 249
3 250 275 276
3 229 277 224
3 225 245 277
3 254 278 255
3 248 282 279
3 282 280 279
3 279 280 287
3 297 299 291
3 315 321 320
3 281 279 287
3 280 282 286
3 292 285 286
3 282 290 286
3 284 331 330
3 328 312 320
3 290 282 248
3 286 285 291
3 268 287 280
3 252 287 278
3 319 323 288
3 312 316 318
3 294 293 289
3 293 294 290
3 290 288 292
3 300 298 291
3 297 291 249
3 290 292 286
3 315 318 288
3 331 284 319
3 290 248 293
3 288 290 294
3 285 317 300
3 285 292 314
3 9 272 308
3 276 297 249
3 299 268 280
3 300 291 285
3 301 298 296
3 291 299 286
3 268 299 297
3 314 316 317
3 298 300 346
3 302 306 307
3 303 272 274
3 264 304 303
3 302 307 336
3 305 258 249
3 267 304 264
3 258 303 304
3 298 305 249
3 301 303 305
3 308 307 306
3 308 301 307
3 301 296 307
3 9 308 306
3 301 308 272
3 261 310 271
3 271 310 262
3 265 310 309
3 311 321 324
3 329 328 320
3 345 347 335
3 342 312 328
3 313 345 346
3 288 314 292
3 314 318 316
3 294 331 288
3 326 320 321
3 333 316 312
3 317 316 313
3 317 313 346
3 285 314 317
3 288 318 314
3 320 318 315
3 348 3 325
3 324 321 323
3 333 340 343
3 318 320 312
3 323 321 315
3 320 326 283
3 288 323 315
3 322 344 329
3 324 323 319
3 348 319 284
3 325 311 324
3 334 338 0
3 348 325 324
3 321 311 326
3 347 316 333
3 329 320 283
3 328 327 342
3 288 331 319
3 328 329 327
3 294 289 330
3 294 330 331
3 340 342 344
3 344 327 329
3 335 336 345
3 340 334 332
3 339 332 334
3 343 340 341
3 336 337 302
3 296 336 307
3 337 335 295
3 344 338 334
3 335 337 336
3 334 0 339
3 343 295 335
3 342 340 333
3 342 333 312
3 340 332 341
3 342 327 344
3 295 343 341
3 347 343 335
3 338 344 322
3 344 334 340
3 346 345 296
3 347 345 313
3 298 346 296
3 346 300 317
3 316 347 313
3 343 347 333
3 319 348 324

CELL_TYPES 605
5
5
5
5
5
5
5
5
5
5
5
5
5
5
5
5
5
5
5
5
5
5
5
5
5
5
5
5
5
5
5
5
5
5
5
5
5
5
5
5
5
5
5
5
5
5
5
5
5
5
5
5
5
5
5
5
5
5
5
5
5
5
5
5
5
5
5
5
5
5
5
5
5
5
5
5
5
5
5
5
5
5
5
5
5
5
5
5
5
5
5
5
5
5
5
5
5
5
5
5
5
5
5
5
5
5
5
5
5
5
5
5
5
5
5
5
5
5
5
5
5
5
5
5
5
5
5
5
5
5
5
5
5
5
5
5
5
5
5
5
5
5
5
5
5
5
5
5
5
5
5
5
5
5
5
5
5
5
5
5
5
5
5
5
5
5
5
5
5
5
5
5
5
5
5
5
5
5
5
5
5
5
5
5
5
5
5
5
5
5
5
5
5
5
5
5
5
5
5
5
5
5
5
5
5
5
5
5
5
5
5
5
5
5
5
5
5
5
5
5
5
5
5
5
5
5
5
5
5
5
5
5
5
5
5
5
5
5
5
5
5
5
5
5
5
5
5
5
5
5
5
5
5
5
5
5
5
5
5
5
5
5
5
5
5
5
5
5
5
5
5
5
5
5
5
5
5
5
5
5
5
5
5
5
5
5
5
5
5
5
5
5
5
5
5
5
5
5
5
5
5
5
5
5
5
5
5
5
5
5
5
5
5
5
5
5
5
5
5
5
5
5
5
5
5
5
5
5
5
5
5
5
5
5
5
5
5
5
5
5
5
5
5
5
5
5
5
5
5
5
5
5
5
5
5
5
5
5
5
5
5
5
5
5
5
5
5
5
5
5
5
5
5
5
5
5
5
5
5
5
5
5
5
5
5
5
5
5
5
5
5
5
5
5
5
5
5
5
5
5
5
5
5
5
5
5
5
5
5
5
5
5
5
5
5
5
5
5
5
5
5
5
5
5
5
5
5
5
5
5
5
5
5
5
5
5
5
5
5
5
5
5
5
5
5
5
5
5
5
5
5
5
5
5
5
5
5
5
5
5
5
5
5
5
5
5
5
5
5
5
5
5
5
5
5
5
5
5
5
5
5
5
5
5
5
5
5
5
5
5
5
5
5
5
5
5
5
5
5
5
5
5
5
5
5
5
5
5
5
5
5
5
5
5
5
5
5
5
5
5
5
5
5
5
5
5
5
5
5
5
5
5
5
5
5
5
5
5
5
5
5
5
5
5
5
5
5
5
5
5
5
5
5
5
5
5
5
5
5
5
5
5
5
5
5
5
5
5
5
5
5
5
5
5
5
5
5
5
5
5
5
5
5
5
5
5
5
5
5
5
5
5
5
5
5
5
5
5
5
5
5
5
5
5
5

POINT_DATA 349
SCALARS pressure float 1
LOOKUP_TABLE default
0
0
0
0
0
0
0
0
0
0
0
0
0
0
0
0
0
0
0
0
0
0
0
0
0
0
0
0
0
0
0
0
0
0
0
0
0
0
0
0
0
0
0
0
0
0
0
0
0
0
0
0
0
0
0
0
0
0
0
0
0
0
0
0
0
0
0
0
0
0
0
0
0
0
0
0
0
0
0
0
0
0
0
0
0
0
0
0
0
0
0
0
0
0
0
0
0
0
0
0
0
0
0
0
0
0
0
0
0
0
0
0
0
0
0
0
0
0
0
0
0
0
0
0
0
0
0
0
0
0
0
0
0
0
0
0
0
0
0
0
0
0
0
0
0
0
0
0
0
0
0
0
0
0
0
0
0
0
0
0
0
0
0
0
0
0
0
0
0
0
0
0
0
0
0
0
0
0
0
0
0
0
0
0
0
0
0
0
0
0
0
0
0
0
0
0
0
0
0
0
0
0
0
0
0
0
0
0
0
0
0
0
0
0
0
0
0
0
0
0
0
0
0
0
0
0
0
0
0
0
0
0
0
0
0
0
0
0
0
0
0
0
0
0
0
0
0
0
0
0
0
0
0
0
0
0
0
0
0
0
0
0
0
0
0
0
0
0
0
0
0
0
0
0
0
0
0
0
0
0
0
0
0
0
0
0
0
0
0
0
0
0
0
0
0
0
0
0
0
0
0
0
0
0
0
0
0
0
0
0
0
0
0
0
0
0
0
0
0
0
0
0
0
0
0
0
0
0
0
0
0
0
0
0
0
0
0
0
0
0
0
0
0
0
0
0
0
0
0
VECTORS displacement float
0 0 0
0.00724122 0.0477487 0
-0.0053719 0.0476794 0
0 0 0
0.00536362 0.0117064 0
-0.00493085 0.0169435 0
0.00694673 0.0290707 0
-0.00534928 0.0320785 0
-0.00316621 0.00509153 0
0.00312666 0.00355184 0
0.00643029 0.0199397 0
-0.0052682 0.0243442 0
0.000155834 0.0205359 0
-0.00513704 0.0205642 0
-0.00244256 0.0186864 0
-0.00249307 0.0215646 0
-0.00344374 0.0201257 0
-0.00504202 0.0187343 0
-0.00374408 0.0188396 0
-0.00150278 0.0201091 0
0.00101374 0.0267821 0
-0.00521649 0.022442 0
-0.00397196 0.02154 0
-0.00331401 0.0235126 0
-0.000150839 0.0237065 0
-0.00532771 0.0281964 0
-0.00169991 0.023046 0
-0.000934731 0.021642 0
-0.00335868 0.0262565 0
-0.00206882 0.0248863 0
-0.00391071 0.0248821 0
-0.00122512 0.0270098 0
-0.00212272 0.0261418 0
-0.000423158 0.0254472 0
0.00709513 0.0383114 0
-0.00298089 0.0286206 0
-0.00530511 0.026264 0
-0.00534207 0.030135 0
-0.0042941 0.0291622 0
-0.00399832 0.0275767 0
-0.00422538 0.0103749 0
0.00180014 0.0150216 0
0.00676531 0.0244898 0
0.000258923 0.0174492 0
-0.000361279 0.0189396 0
0.00325793 0.0241639 0
-0.00211645 0.0155566 0
0.0059707 0.0156538 0
0.00311422 0.0191907 0
0.00136972 0.019263 0
0.00246526 0.0216283 0
0.0023369 0.0202435 0
0.00456847 0.0210162 0
0.0047831 0.0193279 0
0.00390117 0.0167806 0
0.00621039 0.0177605 0
0.00393018 0.0181544 0
0.00212168 0.0174492 0
0.00632294 0.0188545 0
0.0012174 0.0180831 0
0.00113619 0.0162844 0
-0.000488347 0.0158667 0
0.00261938 0.0161816 0
0.00387344 0.0143996 0
0.00358169 0.0155472 0
-0.00140048 0.0172927 0
0.00661411 0.022188 0
0.00393165 0.0225867 0
0.00524429 0.022282 0
0.00499287 0.0240913 0
0.00686059 0.0268382 0
0.00438699 0.0264817 0
0.00681084 0.0256888 0
0.0042346 0.0251338 0
0.00609319 0.016711 0
0.00652217 0.0210545 0
0.0055542 0.0279149 0
0.00202251 0.0336493 0
0.00299038 0.028786 0
0.00410475 0.0278902 0
0.00260927 0.0271594 0
0.00703699 0.0336686 0
0.00210286 0.0254162 0
0.00495162 0.0301024 0
0.000840209 0.0247713 0
0.00150282 0.0230926 0
0.00571745 0.0291522 0
0.000496358 0.0219963 0
-1.14404e-05 0.030136 0
0.00700376 0.031362 0
0.00276865 0.031302 0
-0.00121558 0.0288002 0
5.27336e-06 0.0279069 0
0.00151213 0.0282759 0
0.00491715 0.0325089 0
0.000892013 0.0319549 0
0.00143205 0.0305666 0
0.00212572 0.0323767 0
-0.00536251 0.0398687 0
-0.00221915 0.0323424 0
-0.00359522 0.0309708 0
-0.00179321 0.0305474 0
-0.000714543 0.0317594 0
-0.00053994 0.0344177 0
-0.00105047 0.0331129 0
-0.00535537 0.0359719 0
-0.00289461 0.0298985 0
0.000538207 0.0333905 0
-0.00381444 0.0325715 0
-0.00535306 0.0340242 0
-0.00301016 0.0349977 0
-0.00285268 0.0335983 0
-0.00535428 0.0349983 0
0.00353911 0.030115 0
0.00562714 0.031319 0
0.00453651 0.0357602 0
-0.000737508 0.0390888 0
0.00536945 0.0342151 0
0.00706743 0.0359851 0
0.00363522 0.0342611 0
0.00583034 0.0354689 0
0.00557698 0.0372716 0
0.00714823 0.042994 0
0.00246137 0.0382956 0
0.00207213 0.0359839 0
0.000954523 0.034901 0
0.00387087 0.0373281 0
0.00327112 0.0354964 0
3.42416e-05 0.0369614 0
0.00478746 0.0401694 0
0.00390278 0.0388833 0
0.00711998 0.0406475 0
0.00562315 0.0388424 0
-0.0032254 0.0377937 0
0.00350582 0.0328172 0
0.00144068 0.0372794 0
0.000900554 0.0388425 0
-0.00147678 0.0359623 0
-0.00148747 0.0376156 0
-0.0028342 0.0364173 0
0.00567942 0.0418135 0
0.000878234 0.0476875 0
0.000719848 0.0432565 0
0.000388653 0.0410297 0
0.0024373 0.0404278 0
0.00401935 0.0477066 0
0.00121997 0.0400689 0
0.00378008 0.0417687 0
0.00177421 0.0419589 0
-0.0053701 0.0437725 0
-0.00270818 0.0415324 0
-0.00125445 0.040687 0
-0.00110776 0.0426181 0
-0.00283116 0.0396426 0
-0.00224776 0.0476804 0
-0.00307636 0.0437987 0
-0.00536671 0.0418197 0
-0.0053585 0.0379196 0
-0.00236558 0.0427499 0
-0.00401747 0.0406715 0
-0.00420996 0.0427951 0
-0.00416565 0.0389622 0
-0.00434415 0.036945 0
-0.00537164 0.0457261 0
-0.00423524 0.0447489 0
-0.00248796 0.0457023 0
-0.00380941 0.0476795 0
-0.0014242 0.0443282 0
-0.000684738 0.0476832 0
-0.000765019 0.0459415 0
7.51844e-05 0.0446538 0
0.00286768 0.0450976 0
0.00153282 0.0444801 0
0.00156771 0.0461601 0
0.00244604 0.0476954 0
0.00322929 0.0464935 0
0.00717777 0.0453443 0
0.00523964 0.0460466 0
-0.0038896 0.046195 0
0.0029163 0.0433177 0
0.00457486 0.0442554 0
0.00560628 0.0477193 0
0.00720142 0.0465312 0
0.00471168 0.0428424 0
0.00716223 0.044168 0
0.00138931 0.010742 0
-0.000712879 0.0126926 0
-0.00101925 0.0142862 0
-0.00462835 0.0135253 0
0.000565208 0.0137739 0
-0.00262888 0.0131584 0
0.000529977 0.0150795 0
0.000747466 0.0121354 0
-0.00158323 0.0133461 0
0.00279462 0.0123838 0
0.00197798 0.0135197 0
0.0030756 0.0134957 0
0.00569425 0.0136309 0
0.00427753 0.0127556 0
0.00177732 0.0118227 0
-0.00478821 0.0152006 0
-0.00355148 0.0143149 0
-0.0035822 0.0160246 0
-0.00317198 0.0174117 0
-0.00230196 0.0166647 0
-0.00443974 0.011908 0
-0.00247863 0.0110425 0
-0.00178719 0.0120478 0
-0.000556417 0.0103063 0
-0.000751645 0.0114766 0
-0.00365497 0.012667 0
-0.00356398 0.0110908 0
0.000321768 0.0110146 0
0.00435506 0.00712685 0
0.00583479 0.014644 0
-0.00234428 0.0143327 0
-0.00374388 0.00753907 0
0.00489404 0.00929926 0
-0.00242898 0.00881992 0
-0.00291316 0.00995668 0
-0.00165504 0.00970362 0
0.00338233 0.0103694 0
0.00361732 0.0115864 0
0.00252547 0.0109831 0
0.000971505 0.00688034 0
-0.000211181 0.00827687 0
-0.000692072 0.00921647 0
0.000694423 0.00938033 0
0.00209004 0.00949419 0
0.00100528 0.0081227 0
0.00276199 0.00763456 0
0.00177021 0.00754543 0
0.00234905 0.00849251 0
0.00361026 0.00873326 0
0.00463986 0.00818026 0
0.00514936 0.010467 0
0.00368806 0.00756002 0
0.00410541 0.00973923 0
0.00302259 0.00936687 0
-0.00400208 0.0089069 0
-0.00311335 0.00815816 0
-0.00178652 0.00613152 0
-0.00181645 0.00745568 0
-0.00124792 0.00828773 0
-0.00347113 0.00626275 0
-0.000485667 0.0066259 0
-0.00268001 0.00690759 0
-0.00251167 0.00558091 0
-0.00173742 0.00153939 0
6.69863e-05 0.0028452 0
-0.000908236 0.00424647 0
-0.00154701 0.00507636 0
-0.00250875 0.00306978 0
-0.000384928 0.00527579 0
-0.002847 0.00401721 0
-0.00190023 0.00413247 0
-0.00239364 0.00480747 0
-0.00129656 0.00671485 0
0.000384876 0.00410024 0
0.000335942 0.00597675 0
0.000476062 0.00500543 0
0.00375742 0.00519176 0
0.00263276 0.00587633 0
0.00216167 0.00662503 0
0.0016733 0.00454219 0
0.00303801 0.00673778 0
0.00134151 0.0057065 0
0.00116722 0.0049413 0
-0.00103474 0.0029994 0
-0.000228195 0.00448708 0
0.00193209 0.0053124 0
0.00269535 0.00482858 0
0.00210647 0.00358593 0
0.00344214 0.00432156 0
0.00215969 0.00422144 0
-0.00124824 0.00368025 0
-0.000447167 0.00345933 0
0.000159972 0.00733639 0
-0.00184361 0.00326226 0
-0.0021287 0.00224102 0
-0.00140936 0.00230427 0
-0.00231628 0.00265409 0
-0.00146417 0.00177981 0
0 0 0
-0.000703043 0.000447702 0
-0.000172211 0.00130511 0
-0.000782677 0.00164502 0
-0.00189354 0.00274452 0
-0.00059426 0.000629056 0
-0.0012386 0.000913885 0
-0.00107154 0.00112114 0
-0.000265175 0.00205432 0
-0.000553531 0.0010511 0
-0.00149691 0.00119321 0
-0.000927278 0.000785065 0
0.00166575 0.00120262 0
0.00110689 0.00185792 0
-0.000481711 0.00263416 0
0.000503656 0.00212556 0
-0.000830033 0.00221939 0
0.0001365 0.00168682 0
0.00128231 0.00272896 0
0.0024133 0.00219758 0
0.00125509 0.00357232 0
0.00103436 0.00415563 0
0.000738118 0.00296122 0
0.00276906 0.00282969 0
0.00187528 0.00234432 0
0.0023116 0.00303745 0
0.00407975 0.00612184 0
0.00326328 0.00556632 0
0 0 0
0.000131911 0.00033129 0
0.000472081 0.000963003 0
-8.33268e-05 0.000690674 0
-0.000167471 0.000252363 0
0.000214767 0.000624876 0
0.000111762 0.00100519 0
-3.577e-05 0.000383364 0
-0.000409508 0.000268121 0
1.17998e-05 5.35041e-05 0
-9.84415e-05 5.45916e-05 0
0 0 0
-0.000226741 0.000172666 0
-0.000161973 7.54916e-05 0
0 0 0
0 0 0
0.000191001 0.000117984 0
0.000114928 0.000140263 0
0 0 0
-0.000975963 0.000646797 0
-0.00070252 0.000500347 0
0.000874464 0.000524796 0
0.000574991 0.000532828 0
0.000289031 0.000147804 0
0.00114478 0.00118337 0
0.00169554 0.00172642 0
0.00202465 0.00166129 0
0 0 0
0.000471491 0.000313352 0
0.000631178 0.00039176 0
0.00126931 0.000817861 0
0.000420307 0.000295576 0
0.00100988 0.000770436 0
0.000164747 5.72074e-05 0
0.000850218 0.00131684 0
0.000582386 0.00158881 0
0.000714379 0.00086413 0
-0.00035776 0.000197627 0
VECTORS error float
0 1e-3 0
0.00486027 1e-3 0
-0.00775285 1e-3 0
0 1e-3 0
0.00441124 1e-3 0
-0.00612133 1e-3 0
0.00528006 1e-3 0
-0.00713499 1e-3 0
-0.00376145 1e-3 0
0.00265047 1e-3 0
0.00512077 1e-3 0
-0.00675629 1e-3 0
-0.00118345 1e-3 0
-0.00647632 1e-3 0
-0.00370744 1e-3 0
-0.00387337 1e-3 0
-0.00476633 1e-3 0
-0.0063069 1e-3 0
-0.00501434 1e-3 0
-0.00282537 1e-3 0
-0.000568466 1e-3 0
-0.00663018 1e-3 0
-0.00535077 1e-3 0
-0.00477046 1e-3 0
-0.00161478 1e-3 0
-0.00696462 1e-3 0
-0.00313831 1e-3 0
-0.00231812 1e-3 0
-0.00492118 1e-3 0
-0.00357857 1e-3 0
-0.00542005 1e-3 0
-0.00281651 1e-3 0
-0.0036808 1e-3 0
-0.00195426 1e-3 0
0.00507132 1e-3 0
-0.00463427 1e-3 0
-0.00686761 1e-3 0
-0.00705338 1e-3 0
-0.00596821 1e-3 0
-0.00561156 1e-3 0
-0.00511824 1e-3 0
0.000689429 1e-3 0
0.00527721 1e-3 0
-0.000955079 1e-3 0
-0.00163663 1e-3 0
0.00177842 1e-3 0
-0.00325054 1e-3 0
0.00483974 1e-3 0
0.00183094 1e-3 0
8.22952e-05 1e-3 0
0.00108429 1e-3 0
0.00101079 1e-3 0
0.00321338 1e-3 0
0.00349613 1e-3 0
0.00271828 1e-3 0
0.00499015 1e-3 0
0.00269031 1e-3 0
0.000908793 1e-3 0
0.00505806 1e-3 0
-2.2314e-05 1e-3 0
-2.88015e-05 1e-3 0
-0.00163626 1e-3 0
0.00146013 1e-3 0
0.00279299 1e-3 0
0.00245108 1e-3 0
-0.00260825 1e-3 0
0.0052153 1e-3 0
0.00251416 1e-3 0
0.00383998 1e-3 0
0.00351818 1e-3 0
0.00528321 1e-3 0
0.00281935 1e-3 0
0.0052781 1e-3 0
0.00271888 1e-3 0
0.0049176 1e-3 0
0.00516801 1e-3 0
0.00393218 1e-3 0
0.00017727 1e-3 0
0.00133244 1e-3 0
0.00248209 1e-3 0
0.00101356 1e-3 0
0.00519176 1e-3 0
0.00057376 1e-3 0
0.00324396 1e-3 0
-0.000664558 1e-3 0
6.3592e-05 1e-3 0
0.00404707 1e-3 0
-0.000900371 1e-3 0
-0.00172237 1e-3 0
0.00524781 1e-3 0
0.00101485 1e-3 0
-0.00287568 1e-3 0
-0.00162032 1e-3 0
-0.00012705 1e-3 0
0.00311655 1e-3 0
-0.000888361 1e-3 0
-0.000294697 1e-3 0
0.000329694 1e-3 0
-0.00744585 1e-3 0
-0.00401497 1e-3 0
-0.00533863 1e-3 0
-0.00352029 1e-3 0
-0.00248788 1e-3 0
-0.00241493 1e-3 0
-0.00287564 1e-3 0
-0.00728989 1e-3 0
-0.00459696 1e-3 0
-0.00129741 1e-3 0
-0.00561904 1e-3 0
-0.00721318 1e-3 0
-0.00490748 1e-3 0
-0.00469653 1e-3 0
-0.0072516 1e-3 0
0.00183059 1e-3 0
0.00387247 1e-3 0
0.00261016 1e-3 0
-0.00279124 1e-3 0
0.00350285 1e-3 0
0.00513291 1e-3 0
0.00176655 1e-3 0
0.00391545 1e-3 0
0.00359278 1e-3 0
0.00494585 1e-3 0
0.000437799 1e-3 0
0.000137122 1e-3 0
-0.000938806 1e-3 0
0.00188431 1e-3 0