# vtk DataFile Version 3.0
2D scalar data
ASCII
DATASET UNSTRUCTURED_GRID
POINTS 57 float
0.000000 0.000000 0
5.000000 0.000000 0
5.000000 1.000000 0
0.000000 1.000000 0
2.000000 0.000000 0
2.500000 1.000000 0
3.500000 0.000000 0
3.750000 1.000000 0
1.250000 1.000000 0
1.000000 0.000000 0
2.750000 0.000000 0
3.125000 1.000000 0
2.812500 0.546875 0
2.812500 1.000000 0
2.255661 0.497169 0
3.125000 0.000000 0
3.312500 0.469866 0
2.937500 0.255580 0
2.520025 0.679489 0
1.875000 1.000000 0
2.375000 0.000000 0
2.562500 0.298438 0
4.250000 0.000000 0
3.437500 1.000000 0
3.090403 0.689539 0
1.697305 0.469976 0
2.187500 1.000000 0
3.875000 0.421988 0
1.984334 0.322376 0
1.967194 0.674292 0
1.562500 1.000000 0
1.500000 0.000000 0
3.581752 0.304967 0
3.875000 0.000000 0
4.375000 1.000000 0
3.612633 0.667771 0
1.250000 0.381359 0
1.422807 0.682316 0
0.625000 1.000000 0
0.711136 0.461988 0
0.961994 0.297538 0
4.062500 1.000000 0
4.378443 0.491757 0
1.020819 0.690679 0
0.000000 0.500000 0
0.250000 1.000000 0
0.437500 0.694080 0
0.500000 0.000000 0
0.334996 0.334996 0
4.097282 0.669300 0
4.150018 0.288767 0
4.625000 0.000000 0
5.000000 0.500000 0
4.750000 1.000000 0
5.000000 0.250000 0
4.674247 0.332379 0
4.666079 0.671414 0

CELLS 80 320
3 28 31 4
3 18 13 5
3 36 40 9
3 17 16 24
3 56 53 34
3 35 49 7
3 28 29 25
3 40 43 39
3 12 13 18
3 21 20 10
3 11 24 23
3 16 15 6
3 25 31 28
3 24 13 12
3 10 17 21
3 22 50 33
3 21 17 12
3 13 24 11
3 10 15 17
3 16 17 15
3 26 18 5
3 21 18 14
3 18 21 12
3 26 19 29
3 28 20 14
3 14 20 21
3 17 24 12
3 6 32 16
3 23 24 35
3 24 16 35
3 37 8 43
3 31 36 9
3 41 49 34
3 18 26 14
3 27 49 35
3 20 28 4
3 29 28 14
3 26 29 14
3 30 29 19
3 33 32 6
3 29 30 25
3 36 31 25
3 35 32 27
3 23 35 7
3 32 33 27
3 49 50 42
3 32 35 16
3 37 36 25
3 47 48 0
3 25 30 37
3 8 37 30
3 44 45 3
3 38 39 43
3 9 40 47
3 43 40 36
3 47 40 39
3 2 56 52
3 34 49 42
3 56 34 42
3 37 43 36
3 38 43 8
3 38 46 39
3 46 38 45
3 45 44 46
3 48 46 44
3 0 48 44
3 39 46 48
3 39 48 47
3 49 41 7
3 50 49 27
3 33 50 27
3 22 42 50
3 2 53 56
3 22 51 55
3 42 22 55
3 51 1 54
3 51 54 55
3 52 55 54
3 42 55 56
3 52 56 55

CELL_TYPES 80
5
5
5
5
5
5
5
5
5
5
5
5
5
5
5
5
5
5
5
5
5
5
5
5
5
5
5
5
5
5
5
5
5
5
5
5
5
5
5
5
5
5
5
5
5
5
5
5
5
5
5
5
5
5
5
5
5
5
5
5
5
5
5
5
5
5
5
5
5
5
5
5
5
5
5
5
5
5
5
5

POINT_DATA 57
SCALARS pressure float 1
LOOKUP_TABLE default
0
0
0
0
0
0
0
0
0
0
0
0
0
0
0
0
0
0
0
0
0
0
0
0
0
0
0
0
0
0
0
0
0
0
0
0
0
0
0
0
0
0
0
0
0
0
0
0
0
0
0
0
0
0
0
0
0
VECTORS displacement float
0 0 0
0.134475 0.0580899 0
0.0370365 0.0415327 0
0 0 0
0.0234787 -0.0237374 0
0.058686 -0.0437426 0
0.0714036 -0.0343878 0
0.0459774 -0.0335667 0
0.0259496 -0.0151444 0
0.0133053 -0.00147435 0
0.0451625 -0.0403805 0
0.0519504 -0.0468487 0
0.0521956 -0.0487423 0
0.0547159 -0.0497698 0
0.0401646 -0.0350994 0
0.064856 -0.0419651 0
0.0592399 -0.0434187 0
0.0557163 -0.0468967 0
0.0507613 -0.0463138 0
0.0504211 -0.0275219 0
0.0310413 -0.0342083 0
0.0425398 -0.0424362 0
0.100256 -0.00808581 0
0.0499791 -0.0430447 0
0.054731 -0.0483841 0
0.0313713 -0.017914 0
0.063373 -0.0367055 0
0.0729547 -0.0279733 0
0.0314451 -0.0252363 0
0.0411397 -0.0251092 0
0.0403927 -0.0192228 0
0.0176152 -0.0110673 0
0.0697378 -0.0365557 0
0.08524 -0.0252669 0
0.0399813 -0.00128854 0
0.0584911 -0.0389153 0
0.0235345 -0.0076248 0
0.0293495 -0.0126172 0
0.0176039 -0.00702699 0
0.0104695 -0.00376516 0
0.0138822 -0.00409081 0
0.0431797 -0.0183333 0
0.0712466 -0.00133081 0
0.0186678 -0.0102213 0
0 0 0
0.00569899 -0.00263989 0
0.00736163 -0.00192844 0
0.00513657 0.000955921 0
0.00356922 -0.000324018 0
0.0602376 -0.0183223 0
0.0807195 -0.0162895 0
0.108663 0.0169377 0
0.0725902 0.0422473 0
0.0382598 0.0238888 0
0.0953639 0.0473789 0
0.083107 0.0180202 0
0.0601489 0.017431 0
VECTORS error float
0 1e-3 0
0.132094 1e-3 0
0.0346555 1e-3 0
0 1e-3 0
0.0225263 1e-3 0
0.0574955 1e-3 0
0.069737 1e-3 0
0.0441917 1e-3 0
0.0253544 1e-3 0
0.0128292 1e-3 0
0.043853 1e-3 0
0.0504623 1e-3 0
0.0508563 1e-3 0
0.0533766 1e-3 0
0.0390905 1e-3 0
0.0633679 1e-3 0
0.0576625 1e-3 0
0.0543175 1e-3 0
0.0495613 1e-3 0
0.0495282 1e-3 0
0.0299104 1e-3 0
0.0413195 1e-3 0
0.0982319 1e-3 0
0.0483422 1e-3 0
0.0532594 1e-3 0
0.0305631 1e-3 0
0.0623313 1e-3 0
0.0711094 1e-3 0
0.0305001 1e-3 0
0.0402029 1e-3 0
0.0396486 1e-3 0
0.0169009 1e-3 0
0.0680322 1e-3 0
0.0833948 1e-3 0
0.037898 1e-3 0
0.0567708 1e-3 0
0.0229393 1e-3 0
0.028672 1e-3 0
0.0173062 1e-3 0
0.0101309 1e-3 0
0.0134241 1e-3 0
0.0412452 1e-3 0
0.0691616 1e-3 0
0.0181817 1e-3 0
0 1e-3 0
0.00557994 1e-3 0
0.00715329 1e-3 0
0.00489848 1e-3 0
0.0034097 1e-3 0
0.0582865 1e-3 0
0.0787433 1e-3 0
0.106461 1e-3 0
0.0702092 1e-3 0
0.0359979 1e-3 0
0.092983 1e-3 0
0.0808811 1e-3 0
0.057927 1e-3 0
