# vtk DataFile Version 3.0
2D scalar data
ASCII
DATASET UNSTRUCTURED_GRID
POINTS 198 float
0.000000 0.000000 0
5.000000 0.000000 0
5.000000 1.000000 0
0.000000 1.000000 0
2.000000 0.000000 0
2.500000 1.000000 0
3.500000 0.000000 0
3.750000 1.000000 0
1.250000 1.000000 0
1.000000 0.000000 0
2.750000 0.000000 0
3.125000 1.000000 0
2.812500 0.546875 0
2.812500 1.000000 0
2.656250 0.773438 0
2.898633 0.773438 0
2.777441 0.857018 0
2.777441 0.689857 0
3.322624 0.482594 0
2.968750 1.000000 0
3.075358 0.576598 0
2.936269 0.629475 0
1.875000 1.000000 0
2.332504 0.383004 0
3.125000 0.000000 0
3.437500 1.000000 0
3.111670 0.786952 0
3.246786 0.655316 0
3.577421 0.697479 0
3.281250 1.000000 0
3.359375 0.818124 0
3.418323 0.627623 0
2.549405 0.532591 0
3.107496 0.288929 0
2.381575 0.751167 0
2.375000 0.000000 0
2.694875 0.283309 0
3.165316 0.441018 0
2.960171 0.418099 0
2.806867 0.391359 0
2.937500 0.000000 0
2.883798 0.199556 0
3.037419 0.139689 0
3.312500 0.000000 0
3.406250 0.239436 0
3.601007 0.427660 0
3.218750 0.150674 0
2.366448 0.565831 0
2.035235 0.686148 0
2.158652 0.509847 0
2.215479 0.680976 0
2.187500 1.000000 0
2.129679 0.834190 0
2.031250 1.000000 0
1.500000 0.000000 0
2.100948 0.248195 0
2.187168 0.366369 0
2.524973 0.687552 0
2.517460 0.346864 0
2.391922 0.195737 0
2.187500 0.000000 0
2.562500 0.000000 0
2.656250 0.128776 0
3.448982 0.390091 0
4.250000 0.000000 0
4.375000 1.000000 0
2.343750 1.000000 0
1.750000 0.000000 0
2.234464 0.155567 0
3.875000 0.000000 0
4.068852 0.604496 0
2.278748 0.862828 0
1.875000 0.195468 0
2.006619 0.141935 0
1.941607 0.420525 0
1.517635 0.423617 0
1.633979 0.211897 0
1.764501 0.350555 0
1.391864 0.216677 0
1.625000 0.000000 0
1.511476 0.141049 0
1.514297 0.283956 0
0.625000 1.000000 0
1.250000 0.000000 0
1.058705 0.560848 0
1.375000 0.000000 0
1.270243 0.432282 0
1.391509 0.358582 0
1.404214 0.721279 0
1.032887 0.280054 0
1.240484 0.621629 0
1.237411 0.811012 0
0.937500 1.000000 0
1.093750 1.000000 0
1.398163 0.548533 0
1.114382 0.414144 0
1.214174 0.258549 0
1.106934 0.129400 0
3.639688 0.192766 0
3.507995 0.141202 0
3.687500 0.000000 0
3.895609 0.355542 0
3.732922 0.328751 0
3.840910 0.180344 0
4.062500 0.000000 0
4.156250 0.260947 0
3.996744 0.227829 0
1.722310 0.661594 0
1.551666 0.629635 0
1.802279 0.514061 0
1.647519 0.507981 0
0.500000 0.000000 0
3.794554 0.580519 0
3.647566 0.567670 0
3.938900 0.510172 0
4.097166 0.428807 0
5.000000 0.500000 0
4.503363 0.584396 0
4.284007 0.549045 0
3.767173 0.789717 0
4.625000 0.000000 0
4.361227 0.768121 0
3.921993 0.703590 0
4.062500 1.000000 0
3.906250 1.000000 0
4.095751 0.802731 0
3.951463 0.853778 0
4.218750 1.000000 0
4.435113 0.309661 0
4.216814 0.695876 0
4.237112 0.851571 0
4.410628 0.461588 0
0.750000 0.000000 0
0.597402 0.461679 0
4.315665 0.170906 0
4.437500 0.000000 0
4.531250 0.155562 0
5.000000 0.250000 0
4.724795 0.383347 0
4.739293 0.174910 0
4.591703 0.300315 0
4.812500 0.000000 0
4.848118 0.287202 0
5.000000 0.125000 0
0.875000 0.156637 0
0.821955 0.387197 0
0.636701 0.218610 0
0.792828 0.675122 0
0.773273 0.254615 0
0.625000 0.000000 0
0.742914 0.524637 0
0.995244 0.779635 0
0.937011 0.644147 0
1.107748 0.861544 0
0.781250 1.000000 0
0.703125 0.834570 0
0.000000 0.500000 0
0.312500 1.000000 0
0.589101 0.665466 0
0.303250 0.551760 0
0.466151 0.558395 0
0.383675 0.777232 0
0.534399 0.856051 0
0.859472 0.861805 0
0.387972 0.303107 0
0.000000 0.750000 0
0.534751 0.326838 0
0.125000 1.000000 0
0.195117 0.717410 0
0.218750 0.873268 0
0.144711 0.566387 0
0.000000 0.250000 0
0.479687 0.164748 0
0.250000 0.000000 0
0.125000 0.125000 0
0.289827 0.164827 0
3.593750 1.000000 0
3.520653 0.852244 0
1.562500 1.000000 0
1.605564 0.813399 0
1.790211 0.834607 0
1.959950 0.838323 0
1.876656 0.700850 0
1.718750 1.000000 0
5.000000 0.750000 0
4.784690 0.625000 0
4.845433 0.481695 0
5.000000 0.625000 0
4.687500 1.000000 0
4.654966 0.528904 0
4.586992 0.795937 0
4.808831 0.831351 0
4.843750 1.000000 0
4.549373 0.435078 0
4.531250 1.000000 0
0.182887 0.357638 0
1.406250 1.000000 0
1.462394 0.860222 0

CELLS 327 1308
3 72 4 73
3 15 16 17
3 97 144 9
3 21 15 17
3 112 113 102
3 7 119 124
3 78 85 80
3 166 146 133
3 62 59 61
3 40 41 10
3 21 26 15
3 42 46 33
3 32 47 23
3 19 16 15
3 5 14 16
3 41 38 39
3 13 16 19
3 5 16 13
3 17 16 14
3 17 14 57
3 21 17 12
3 30 177 25
3 26 11 19
3 24 46 42
3 26 19 15
3 27 26 20
3 38 21 12
3 26 21 20
3 17 32 12
3 34 50 47
3 32 17 57
3 20 37 27
3 37 18 27
3 29 30 25
3 29 11 26
3 31 27 18
3 30 29 26
3 63 31 18
3 45 113 31
3 31 30 27
3 30 26 27
3 30 31 177
3 63 18 44
3 31 28 177
3 57 5 34
3 58 59 62
3 38 20 21
3 43 6 99
3 181 180 182
3 49 47 50
3 32 36 39
3 68 60 35
3 23 58 32
3 38 37 20
3 44 37 33
3 39 38 12
3 37 38 33
3 32 39 12
3 41 36 62
3 42 40 24
3 41 39 36
3 38 41 33
3 33 41 42
3 40 42 41
3 99 98 44
3 24 43 46
3 44 18 37
3 121 129 118
3 176 119 7
3 43 44 46
3 44 33 46
3 57 47 32
3 52 48 50
3 88 91 90
3 23 47 49
3 67 72 76
3 68 35 59
3 52 50 71
3 48 49 50
3 71 50 34
3 51 52 71
3 22 180 181
3 23 49 56
3 52 51 53
3 76 72 77
3 49 48 74
3 74 56 49
3 56 55 68
3 5 57 14
3 47 57 34
3 59 58 23
3 36 32 58
3 23 56 68
3 61 10 62
3 41 62 10
3 60 68 73
3 59 35 61
3 62 36 58
3 98 63 44
3 31 63 45
3 68 59 23
3 101 103 106
3 118 70 115
3 34 5 66
3 67 4 72
3 73 68 55
3 45 98 102
3 98 45 63
3 117 190 121
3 34 66 71
3 51 71 66
3 55 56 74
3 74 72 55
3 60 73 4
3 55 72 73
3 183 179 180
3 79 67 76
3 109 77 74
3 78 81 87
3 77 72 74
3 77 81 76
3 182 109 74
3 81 77 75
3 84 95 90
3 54 80 85
3 79 80 54
3 80 79 76
3 81 80 76
3 87 81 75
3 80 81 78
3 153 91 8
3 96 83 78
3 78 87 96
3 149 172 111
3 87 94 86
3 78 83 85
3 86 90 95
3 94 87 75
3 96 87 86
3 77 109 110
3 8 91 196
3 144 148 132
3 97 83 96
3 94 90 86
3 197 91 88
3 151 163 147
3 90 91 151
3 75 110 108
3 92 151 153
3 8 93 153
3 90 94 88
3 145 95 84
3 96 95 89
3 95 96 86
3 96 89 97
3 144 97 89
3 83 97 9
3 69 103 100
3 119 113 112
3 43 99 44
3 100 99 6
3 104 64 105
3 99 100 98
3 105 106 104
3 98 100 103
3 112 102 101
3 101 102 103
3 98 103 102
3 131 128 193
3 69 104 106
3 101 115 114
3 106 103 69
3 115 106 105
3 181 48 52
3 94 108 88
3 75 108 94
3 179 108 107
3 182 74 48
3 107 108 110
3 77 110 75
3 107 110 109
3 101 114 112
3 146 148 133
3 112 122 119
3 31 113 28
3 102 113 45
3 101 106 115
3 122 114 70
3 136 134 135
3 70 114 115
3 105 128 131
3 142 116 186
3 121 190 194
3 105 118 115
3 121 118 117
3 113 119 28
3 112 114 122
3 185 191 190
3 131 117 118
3 125 130 123
3 124 126 123
3 123 126 125
3 129 70 118
3 122 70 125
3 126 119 122
3 130 65 127
3 119 126 124
3 122 125 126
3 64 134 105
3 127 123 130
3 134 136 128
3 130 129 121
3 70 129 125
3 129 130 125
3 65 130 121
3 105 131 118
3 128 140 193
3 133 145 150
3 132 9 144
3 171 0 174
3 135 120 136
3 128 105 134
3 143 139 141
3 134 64 135
3 120 139 136
3 187 184 185
3 140 139 138
3 128 136 140
3 143 137 142
3 142 139 143
3 139 140 136
3 189 193 138
3 116 142 137
3 139 120 141
3 138 139 142
3 145 144 89
3 141 1 143
3 144 145 148
3 95 145 89
3 152 150 145
3 164 166 160
3 149 132 146
3 152 151 147
3 155 154 82
3 133 148 145
3 132 148 146
3 152 145 84
3 172 149 146
3 158 150 147
3 151 84 90
3 163 154 155
3 150 152 147
3 84 151 152
3 92 153 93
3 151 91 153
3 168 159 161
3 163 151 92
3 147 155 158
3 161 162 157
3 150 158 133
3 162 155 82
3 165 170 168
3 133 158 160
3 160 158 161
3 162 158 155
3 164 160 159
3 165 167 3
3 159 160 161
3 157 162 82
3 158 162 161
3 154 163 92
3 147 163 155
3 159 170 195
3 172 175 111
3 160 166 133
3 169 157 167
3 172 166 164
3 165 168 169
3 161 157 169
3 170 165 156
3 165 169 167
3 161 169 168
3 156 171 195
3 159 168 170
3 166 172 146
3 195 164 159
3 174 175 195
3 173 175 174
3 175 172 164
3 0 173 174
3 175 173 111
3 175 164 195
3 119 177 28
3 176 177 119
3 25 177 176
3 180 179 107
3 88 108 179
3 178 196 197
3 182 180 107
3 179 183 178
3 52 53 181
3 22 181 53
3 109 182 107
3 181 182 48
3 192 188 191
3 180 22 183
3 185 189 186
3 189 185 190
3 142 186 138
3 187 186 116
3 117 131 193
3 186 187 185
3 184 191 185
3 186 189 138
3 190 117 189
3 121 194 65
3 2 191 184
3 190 191 188
3 138 193 140
3 191 2 192
3 117 193 189
3 156 195 170
3 190 188 194
3 195 171 174
3 178 197 179
3 179 197 88
3 91 197 196

CELL_TYPES 327
5
5
5
5
5
5
5
5
5
5
5
5
5
5
5
5
5
5
5
5
5
5
5
5
5
5
5
5
5
5
5
5
5
5
5
5
5
5
5
5
5
5
5
5
5
5
5
5
5
5
5
5
5
5
5
5
5
5
5
5
5
5
5
5
5
5
5
5
5
5
5
5
5
5
5
5
5
5
5
5
5
5
5
5
5
5
5
5
5
5
5
5
5
5
5
5
5
5
5
5
5
5
5
5
5
5
5
5
5
5
5
5
5
5
5
5
5
5
5
5
5
5
5
5
5
5
5
5
5
5
5
5
5
5
5
5
5
5
5
5
5
5
5
5
5
5
5
5
5
5
5
5
5
5
5
5
5
5
5
5
5
5
5
5
5
5
5
5
5
5
5
5
5
5
5
5
5
5
5
5
5
5
5
5
5
5
5
5
5
5
5
5
5
5
5
5
5
5
5
5
5
5
5
5
5
5
5
5
5
5
5
5
5
5
5
5
5
5
5
5
5
5
5
5
5
5
5
5
5
5
5
5
5
5
5
5
5
5
5
5
5
5
5
5
5
5
5
5
5
5
5
5
5
5
5
5
5
5
5
5
5
5
5
5
5
5
5
5
5
5
5
5
5
5
5
5
5
5
5
5
5
5
5
5
5
5
5
5
5
5
5
5
5
5
5
5
5
5
5
5
5
5
5
5
5
5
5
5
5
5
5
5
5
5
5
5
5
5
5
5
5
5
5
5
5
5
5

POINT_DATA 198
SCALARS pressure float 1
LOOKUP_TABLE default
0
0
0
0
0
0
0
0
0
0
0
0
0
0
0
0
0
0
0
0
0
0
0
0
0
0
0
0
0
0
0
0
0
0
0
0
0
0
0
0
0
0
0
0
0
0
0
0
0
0
0
0
0
0
0
0
0
0
0
0
0
0
0
0
0
0
0
0
0
0
0
0
0
0
0
0
0
0
0
0
0
0
0
0
0
0
0
0
0
0
0
0
0
0
0
0
0
0
0
0
0
0
0
0
0
0
0
0
0
0
0
0
0
0
0
0
0
0
0
0
0
0
0
0
0
0
0
0
0
0
0
0
0
0
0
0
0
0
0
0
0
0
0
0
0
0
0
0
0
0
0
0
0
0
0
0
0
0
0
0
0
0
0
0
0
0
0
0
0
0
0
0
0
0
0
0
0
0
0
0
0
0
0
0
0
0
0
0
0
0
0
0
0
0
0
0
0
0
VECTORS displacement float
0 0 0
0.00345215 0.0217948 0
-0.00223197 0.0216785 0
0 0 0
0.00263614 0.00624042 0
-0.00203118 0.00859916 0
0.00303981 0.0136366 0
-0.00214822 0.0149157 0
-0.00153669 0.0029325 0
0.00170509 0.00208622 0
0.00287587 0.00984676 0
-0.00208815 0.0117006 0
0.000192141 0.0101321 0
-0.00205975 0.010136 0
-0.000934657 0.0093586 0
-0.00093728 0.0105588 0
-0.00135018 0.00995648 0
-0.000519847 0.00995666 0
0.000537562 0.0126979 0
-0.00207401 0.0109117 0
5.01719e-05 0.0114422 0
-0.000217232 0.0107456 0
-0.00192409 0.00557317 0
0.000954857 0.007788 0
0.00296325 0.0117185 0
-0.00211717 0.0132901 0
-0.00101084 0.0116247 0
-0.000345615 0.0123081 0
-0.00056264 0.0140078 0
-0.00210208 0.0124906 0
-0.0011797 0.0128842 0
-0.000202491 0.0131848 0
0.000253387 0.00883758 0
0.00150259 0.0116098 0
-0.000824428 0.00802186 0
0.0027619 0.00806352 0
0.00149416 0.00955752 0
0.000738404 0.0118969 0
0.000841374 0.0108663 0
0.000965176 0.0101072 0
0.00292022 0.0107762 0
0.00192194 0.0104908 0
0.00224363 0.0112652 0
0.00300208 0.0126711 0
0.00179137 0.0131344 0
0.000839894 0.0141335 0
0.00221751 0.0121826 0
7.18615e-05 0.00794048 0
-0.000504698 0.00631616 0
0.000311314 0.00692648 0
-0.000479993 0.00720317 0
-0.00201249 0.00708882 0
-0.00120145 0.00678663 0
-0.00197749 0.00631705 0
0.00225752 0.00397958 0
0.00150362 0.00669051 0
0.000983298 0.00709113 0
-0.000515224 0.00871521 0
0.00118138 0.00869132 0
0.00185323 0.00811283 0
0.00271925 0.00717424 0
0.0028182 0.00894125 0
0.00222766 0.00937568 0
0.00102167 0.0133484 0
0.00319082 0.0175902 0
-0.0022091 0.018252 0
-0.00201669 0.007855 0
0.00247118 0.00506253 0
0.00199014 0.00739122 0
0.00311749 0.0155924 0
-6.884e-05 0.0165934 0
-0.00135322 0.00754448 0
0.00166313 0.00559338 0
0.00196788 0.00624564 0
0.000674233 0.00587912 0
0.000559919 0.00393393 0
0.00146924 0.00448323 0
0.000935847 0.0050456 0
0.00131088 0.00344999 0
0.00237588 0.00450844 0
0.00169087 0.00396511 0
0.00111729 0.00394169 0
-0.000909421 0.000965816 0
0.00200841 0.00296275 0
1.64028e-05 0.00214477 0
0.00213141 0.00346175 0
0.000460276 0.00292445 0
0.000770799 0.00341381 0
-0.000584849 0.0034532 0
0.00085695 0.00208596 0
-0.000194883 0.00279462 0
-0.000838821 0.00282209 0
-0.00117712 0.00184224 0
-0.00137551 0.00241803 0
6.43724e-05 0.00342205 0
0.000476534 0.00234172 0
0.00103738 0.00273831 0
0.00140148 0.00238943 0
0.00206388 0.0143442 0
0.00231203 0.013665 0
0.00307893 0.0146062 0
0.00124139 0.0156784 0
0.00136681 0.0148239 0
0.00215891 0.0153986 0
0.00315449 0.0165869 0
0.00177591 0.0170678 0
0.00193065 0.0162202 0
-0.000392637 0.00483393 0
-0.000248483 0.00407317 0
0.00024333 0.00520949 0
0.000247124 0.00449901 0
0.000972371 0.000774635 0
5.12301e-05 0.0151411 0
0.000113865 0.0143726 0
0.000428246 0.0159038 0
0.00087024 0.0167464 0
0.000510457 0.021694 0
4.56728e-05 0.0189425 0
0.000234932 0.017749 0
-0.00104663 0.0149964 0
0.00328111 0.0196245 0
-0.000950223 0.01817 0
-0.000595983 0.0158122 0
-0.00217937 0.0165656 0
-0.0021631 0.0157363 0
-0.00112751 0.0167391 0
-0.00139343 0.015971 0
-0.00219447 0.017407 0
0.00154148 0.0185708 0
-0.000557632 0.0173873 0
-0.00139612 0.0174992 0
0.000713788 0.018435 0
0.00134722 0.00134449 0
0.000190169 0.000783265 0
0.0022826 0.0179305 0
0.00323214 0.0186015 0
0.00239941 0.0190993 0
0.00191899 0.0217309 0
0.00115145 0.0201634 0
0.00232269 0.0202424 0
0.00160755 0.0194257 0
0.00334345 0.0206677 0
0.00169303 0.0208581 0
0.00264452 0.0217476 0
0.00108911 0.00161547 0
0.000451492 0.00139109 0
0.000697572 0.000958986 0
-0.000265845 0.0013161 0
0.000743432 0.00128979 0
0.00116991 0.00104565 0
9.10438e-05 0.00115481 0
-0.000624376 0.00194973 0
-0.000217058 0.0017501 0
-0.000937916 0.00236871 0
-0.00106657 0.00137675 0
-0.000595677 0.00110021 0
0 0 0
-0.000498662 0.000342951 0
-0.000185049 0.000760843 0
1.70941e-06 0.000215225 0
4.72819e-06 0.000493311 0
-0.000257596 0.00036497 0
-0.000515236 0.000697361 0
-0.000761333 0.00156338 0
0.000318699 0.000386755 0
0 0 0
0.000394314 0.000679137 0
-0.000168584 0.000113673 0
-0.000101281 0.000109686 0
-0.000222452 0.000148532 0
-7.88804e-06 5.62512e-05 0
0 0 0
0.000630298 0.000629723 0
0.000538618 0.000347258 0
0.000165806 8.41528e-05 0
0.000365523 0.000287099 0
-0.00213377 0.0140976 0
-0.00136175 0.0137144 0
-0.00176915 0.00417419 0
-0.00100522 0.00432076 0
-0.00114824 0.00515817 0
-0.00119974 0.00595676 0
-0.000572889 0.00555548 0
-0.00185477 0.0048561 0
-0.000861876 0.0216804 0
-0.000178301 0.020495 0
0.000608911 0.0208341 0
-0.000176938 0.021685 0
-0.00222729 0.0199605 0
0.000348626 0.0197771 0
-0.0011092 0.0194054 0
-0.00130651 0.0206275 0
-0.00223078 0.02082 0
0.000863001 0.0191931 0
-0.00221945 0.0191038 0
0.000110235 8.03091e-05 0
-0.00165525 0.00352753 0
-0.00114101 0.00371912 0
VECTORS error float
0 1e-3 0
0.00107119 1e-3 0
-0.00461292 1e-3 0
0 1e-3 0
0.00168376 1e-3 0
-0.00322166 1e-3 0
0.00137314 1e-3 0
-0.00393393 1e-3 0
-0.00213193 1e-3 0
0.0012289 1e-3 0
0.00156635 1e-3 0
-0.00357624 1e-3 0
-0.00114714 1e-3 0
-0.00339903 1e-3 0
-0.00219954 1e-3 0
-0.00231758 1e-3 0
-0.00267277 1e-3 0
-0.00184244 1e-3 0
-0.00104464 1e-3 0
-0.0034877 1e-3 0
-0.00141428 1e-3 0
-0.00161546 1e-3 0
-0.00281695 1e-3 0
-0.000155859 1e-3 0
0.00147515 1e-3 0
-0.00375407 1e-3 0
-0.00249258 1e-3 0
-0.0018917 1e-3 0
-0.00226617 1e-3 0
-0.00366458 1e-3 0
-0.0027794 1e-3 0
-0.00183026 1e-3 0
-0.000960615 1e-3 0
2.28253e-05 1e-3 0
-0.00195851 1e-3 0
0.00163094 1e-3 0
0.000210887 1e-3 0
-0.000768889 1e-3 0
-0.000568231 1e-3 0
-0.000371428 1e-3 0
0.00152142 1e-3 0
0.000548706 1e-3 0
0.000797244 1e-3 0
0.0014247 1e-3 0
0.000169342 1e-3 0
-0.000874871 1e-3 0
0.000684774 1e-3 0
-0.00105502 1e-3 0
-0.00147386 1e-3 0
-0.000716615 1e-3 0
-0.00153498 1e-3 0
-0.00305416 1e-3 0
-0.00221558 1e-3 0
-0.00294476 1e-3 0
0.00154323 1e-3 0
0.00050317 1e-3 0
-5.82108e-05 1e-3 0
-0.00171759 1e-3 0
-1.74113e-05 1e-3 0
0.000714222 1e-3 0
0.00167759 1e-3 0
0.00159796 1e-3 0
0.00096278 1e-3 0
-0.000620701 1e-3 0
0.00116702 1e-3 0
-0.00429243 1e-3 0
-0.00313276 1e-3 0
0.00163785 1e-3 0
0.000926106 1e-3 0
0.00127226 1e-3 0
-0.00200639 1e-3 0
-0.00243834 1e-3 0
0.000770272 1e-3 0
0.00101234 1e-3 0
-0.000250342 1e-3 0
-0.000162764 1e-3 0
0.000691151 1e-3 0
9.56089e-05 1e-3 0
0.000648087 1e-3 0
0.00160207 1e-3 0
0.000971122 1e-3 0
0.000396193 1e-3 0
-0.00120704 1e-3 0
0.00141317 1e-3 0
-0.000487742 1e-3 0
0.00147665 1e-3 0
-0.000144602 1e-3 0
0.000108176 1e-3 0
-0.00125352 1e-3 0
0.0003651 1e-3 0
-0.00078559 1e-3 0
-0.00142806 1e-3 0
-0.00162355 1e-3 0
-0.00189634 1e-3 0
-0.000601419 1e-3 0
-5.41246e-05 1e-3 0
0.000459201 1e-3 0
0.000874364 1e-3 0
0.000330698 1e-3 0
0.000641559 1e-3 0
0.00132297 1e-3 0
-0.000613659 1e-3 0
-0.000410776 1e-3 0
0.000329905 1e-3 0
0.00121997 1e-3 0
-0.000203252 1e-3 0
2.74423e-05 1e-3 0
-0.00121278 1e-3 0
-0.000987371 1e-3 0
-0.000614898 1e-3 0
-0.000537409 1e-3 0
0.000734276 1e-3 0
-0.0017557 1e-3 0
-0.00162307 1e-3 0
-0.00144742 1e-3 0
-0.00108079 1e-3 0
-0.0018705 1e-3 0
-0.00209879 1e-3 0
-0.00180507 1e-3 0
-0.00284052 1e-3 0
0.00107873 1e-3 0
-0.003027 1e-3 0
-0.0024636 1e-3 0
-0.00411389 1e-3 0
-0.00402321 1e-3 0
-0.00307787 1e-3 0
-0.00327507 1e-3 0
-0.0042034 1e-3 0
-0.000570476 1e-3 0
-0.00256564 1e-3 0
-0.00341379 1e-3 0
-0.00138651 1e-3 0
0.00099008 1e-3 0
-9.43082e-05 1e-3 0
0.000227524 1e-3 0
0.00111905 1e-3 0
0.000241671 1e-3 0
-0.000461966 1e-3 0
-0.00109845 1e-3 0
6.58814e-05 1e-3 0
-0.000578975 1e-3 0
0.00105178 1e-3 0
-0.000615594 1e-3 0
0.000263566 1e-3 0
0.000672446 1e-3 0
6.00845e-05 1e-3 0
0.000394381 1e-3 0
-0.000643383 1e-3 0
0.000375207 1e-3 0
0.000872293 1e-3 0
-0.000262725 1e-3 0
-0.0010983 1e-3 0
-0.000663253 1e-3 0
-0.00146541 1e-3 0
-0.00143859 1e-3 0
-0.000930498 1e-3 0
0 1e-3 0
-0.000647471 1e-3 0
-0.000465574 1e-3 0
-0.000142695 1e-3 0
-0.000217249 1e-3 0
-0.000440299 1e-3 0
-0.000769712 1e-3 0
-0.00117061 1e-3 0
0.00013395 1e-3 0
0 1e-3 0
0.000139671 1e-3 0
-0.000228108 1e-3 0
-0.000194193 1e-3 0
-0.000326618 1e-3 0
-7.67981e-05 1e-3 0
0 1e-3 0
0.000401875 1e-3 0
0.00041957 1e-3 0
0.000106282 1e-3 0
0.00022751 1e-3 0
-0.00384508 1e-3 0
-0.00303826 1e-3 0
-0.00251319 1e-3 0
-0.00176978 1e-3 0
-0.00200072 1e-3 0
-0.00213305 1e-3 0
-0.00146653 1e-3 0
-0.00267323 1e-3 0
-0.00324283 1e-3 0
-0.00245672 1e-3 0
-0.00169844 1e-3 0
-0.00255789 1e-3 0
-0.00445943 1e-3 0
-0.00186802 1e-3 0
-0.00329349 1e-3 0
-0.00359643 1e-3 0
-0.00453732 1e-3 0
-0.00130337 1e-3 0
-0.00437719 1e-3 0
2.31456e-05 1e-3 0
-0.00232489 1e-3 0
-0.00183738 1e-3 0
