# vtk DataFile Version 3.0
2D scalar data
ASCII
DATASET UNSTRUCTURED_GRID
POINTS 666 float
0.000000 0.000000 0
1.000000 0.000000 0
1.000000 1.000000 0
0.000000 1.000000 0
0.500000 0.500000 0
0.000000 0.500000 0
0.500000 0.000000 0
1.000000 0.500000 0
0.500000 1.000000 0
0.750000 0.250000 0
0.250000 0.750000 0
0.750000 0.750000 0
0.500000 0.250000 0
0.750000 0.000000 0
1.000000 0.250000 0
0.875000 0.375000 0
0.875000 0.125000 0
0.875000 0.250000 0
1.000000 0.375000 0
0.812500 0.562500 0
0.750000 0.125000 0
0.625000 0.187500 0
0.515625 0.125000 0
0.250000 0.000000 0
0.625000 0.000000 0
0.375000 0.000000 0
0.656250 0.093750 0
0.312500 0.187500 0
0.312500 0.083333 0
0.407652 0.135417 0
0.875000 0.000000 0
1.000000 0.125000 0
0.890625 0.484375 0
1.000000 0.750000 0
0.640625 0.609375 0
0.703125 0.421875 0
0.613839 0.321429 0
0.705212 0.330115 0
0.590473 0.432104 0
0.654316 0.509772 0
0.476906 0.375000 0
0.250000 0.481554 0
0.381582 0.292755 0
0.377417 0.458014 0
0.000000 0.250000 0
0.385208 0.635208 0
0.295879 0.373278 0
0.125696 0.365026 0
0.328333 0.548940 0
0.000000 0.750000 0
0.202686 0.615777 0
0.290234 0.660366 0
0.125000 0.718613 0
0.126679 0.513534 0
0.250000 1.000000 0
0.000000 0.875000 0
0.000000 0.625000 0
0.153535 0.869571 0
0.100962 0.612024 0
0.000000 0.375000 0
0.154067 0.207833 0
0.199692 0.102836 0
0.125000 0.000000 0
0.000000 0.125000 0
0.098089 0.098089 0
0.282603 0.875000 0
0.391641 0.779808 0
0.375000 1.000000 0
0.520939 0.701613 0
0.437500 0.893999 0
0.750000 1.000000 0
0.612338 0.862338 0
0.530762 0.910436 0
0.625000 1.000000 0
0.125000 1.000000 0
0.243199 0.274932 0
0.090326 0.277486 0
0.484846 0.603468 0
0.635362 0.726316 0
1.000000 0.625000 0
0.875000 0.687500 0
0.742188 0.643229 0
0.737338 0.875000 0
0.879376 0.834998 0
1.000000 0.875000 0
0.875000 1.000000 0
0.825573 0.916130 0
0.918597 0.918597 0
0.783433 0.377797 0
0.252489 0.557883 0
0.576778 0.068157 0
0.582250 0.135360 0
0.153329 0.573095 0
0.562500 1.000000 0
0.710750 0.568272 0
0.665935 0.258341 0
0.312500 0.000000 0
0.718750 0.062500 0
0.381599 0.070054 0
0.251114 0.064269 0
0.576942 0.508301 0
0.316284 0.483724 0
0.000000 0.312500 0
0.418868 0.540961 0
0.561808 0.630874 0
0.167116 0.297375 0
0.210718 0.370577 0
0.163556 0.439032 0
0.353947 0.709042 0
0.437241 0.700773 0
0.000000 0.687500 0
0.000000 0.562500 0
0.150237 0.656916 0
0.062500 0.000000 0
0.263414 0.135417 0
0.150789 0.059811 0
0.068469 0.182346 0
0.146935 0.142322 0
0.524212 0.806102 0
0.599020 0.932976 0
0.687500 1.000000 0
0.937500 1.000000 0
0.762812 0.935561 0
0.812500 1.000000 0
1.000000 0.937500 0
0.827265 0.312500 0
0.831070 0.437079 0
0.757487 0.492441 0
0.068319 0.550898 0
0.000000 0.062500 0
0.569858 0.752376 0
0.462834 0.768211 0
0.388311 0.213041 0
0.937500 0.421875 0
0.466670 0.182357 0
0.935268 0.562500 0
0.927193 0.635636 0
0.552436 0.366269 0
0.643022 0.385394 0
0.519504 0.431763 0
0.378514 0.375360 0
0.309996 0.302434 0
0.356018 0.917382 0
0.312500 1.000000 0
0.350304 0.842504 0
0.318384 0.776483 0
0.676974 0.669600 0
0.437500 1.000000 0
0.679143 0.803686 0
0.799479 0.692708 0
0.842218 0.762287 0
0.920798 0.752154 0
0.801080 0.829160 0
1.000000 0.812500 0
0.069449 0.675136 0
0.228587 0.201593 0
0.676167 0.923046 0
0.937500 0.312500 0
0.812500 0.062500 0
0.078508 0.921492 0
0.578659 0.251068 0
0.937500 0.187500 0
0.937500 0.062500 0
0.812500 0.187500 0
0.703125 0.187500 0
0.453293 0.306004 0
0.080310 0.805236 0
0.000000 0.812500 0
0.070510 0.439648 0
0.220077 0.824556 0
0.179769 0.765096 0
0.215879 0.924349 0
0.460550 0.068408 0
0.421549 0.092004 0
0.300633 0.825792 0
0.531250 0.960668 0
0.471574 0.945334 0
0.539410 0.191450 0
0.765625 0.046875 0
0.340318 0.041667 0
0.439128 0.246712 0
0.687500 0.000000 0
0.198844 0.156689 0
0.873884 0.592736 0
0.599695 0.366521 0
0.694513 0.619153 0
0.690045 0.375674 0
0.554829 0.465074 0
0.447783 0.441221 0
0.039836 0.281250 0
0.337940 0.344831 0
0.327378 0.424567 0
0.268379 0.425483 0
0.216925 0.439666 0
0.202670 0.700723 0
0.037657 0.781250 0
0.051543 0.626771 0
0.093750 0.044162 0
0.051062 0.074735 0
0.187500 0.000000 0
0.099292 0.145846 0
0.281250 0.941399 0
0.613798 0.666871 0
0.422502 0.744942 0
0.406250 0.949331 0
0.574758 0.891827 0
0.583559 0.810269 0
0.632072 0.817443 0
0.695087 0.726512 0
0.740169 0.697048 0
0.641095 0.955214 0
0.906250 0.964361 0
0.281961 0.518717 0
0.632360 0.137870 0
0.193949 0.519177 0
0.291787 0.041667 0
0.356141 0.753296 0
0.513912 0.754129 0
0.315589 0.135417 0
0.436076 0.828267 0
0.803413 0.955630 0
0.964361 0.906250 0
0.942776 0.845686 0
0.339224 0.249038 0
1.000000 0.562500 0
1.000000 0.687500 0
0.509434 0.325329 0
0.410819 0.335200 0
0.259885 0.329276 0
0.343750 0.963690 0
0.299592 0.723476 0
0.933752 0.694430 0
0.268125 0.180149 0
0.634383 0.903069 0
0.125394 0.773655 0
0.159862 0.815628 0
0.073904 0.495362 0
0.043310 0.843750 0
0.097848 0.859114 0
0.437500 0.000000 0
0.582945 0.205517 0
0.656250 0.041667 0
0.863835 0.535710 0
0.814702 0.504142 0
0.879720 0.640056 0
0.421693 0.487719 0
0.404826 0.417043 0
0.069074 0.732843 0
0.201497 0.049763 0
0.051560 0.126309 0
0.573303 0.700104 0
0.615288 0.771214 0
0.162936 0.485103 0
0.204446 0.566923 0
0.361621 0.115891 0
0.490902 0.859961 0
0.397604 0.861982 0
0.917493 0.802279 0
0.284291 0.236322 0
0.959487 0.602188 0
0.210902 0.320881 0
0.254460 0.697919 0
0.420545 0.043800 0
0.541209 0.853844 0
0.961985 0.781250 0
0.194821 0.246446 0
0.295914 0.600082 0
0.348466 0.597549 0
0.252408 0.626393 0
0.829616 0.389467 0
0.882382 0.319882 0
0.793170 0.778204 0
0.740951 0.812402 0
0.695313 0.132813 0
0.884496 0.430950 0
0.947329 0.478075 0
0.945313 0.367188 0
0.659513 0.561229 0
0.620687 0.274029 0
0.562500 0.000000 0
0.518638 0.056328 0
0.772289 0.435533 0
0.616257 0.475983 0
0.652545 0.437456 0
0.661259 0.307533 0
0.708124 0.514335 0
0.511913 0.649223 0
0.121357 0.315864 0
0.060940 0.345969 0
0.082852 0.391059 0
0.340958 0.660008 0
0.230992 0.875000 0
0.788938 0.879514 0
0.149504 0.937025 0
0.187500 1.000000 0
0.532701 0.557633 0
0.594033 0.568131 0
0.763044 0.590410 0
0.752768 0.541851 0
0.816342 0.627079 0
0.664063 0.212175 0
0.710584 0.280541 0
0.764822 0.311497 0
0.136845 0.256065 0
0.166710 0.390731 0
0.393338 0.682185 0
0.442595 0.643094 0
0.420036 0.594512 0
0.715553 0.956557 0
0.812500 0.251744 0
0.420496 0.179839 0
1.000000 0.437500 0
0.327563 0.881896 0
0.839047 0.716319 0
0.842005 0.808246 0
0.757813 0.195313 0
0.461590 0.128451 0
0.260778 0.797609 0
0.538884 0.283385 0
0.430215 0.377761 0
0.361194 0.168250 0
0.566731 0.321382 0
0.812500 0.125000 0
0.937500 0.250000 0
1.000000 0.187500 0
0.875000 0.062500 0
0.875000 0.187500 0
0.937500 0.125000 0
0.473838 0.549012 0
0.000000 0.937500 0
0.872836 0.889067 0
0.370798 0.513152 0
0.000000 0.187500 0
1.000000 0.312500 0
0.812500 0.000000 0
0.062500 1.000000 0
0.044547 0.955453 0
1.000000 0.062500 0
0.937500 0.000000 0
0.000000 0.437500 0
0.678851 0.863326 0
0.736495 0.387475 0
0.612249 0.042116 0
0.577798 0.032369 0
0.615585 0.083838 0
0.585985 0.101232 0
0.544658 0.094918 0
0.859989 0.406328 0
0.497989 0.966322 0
0.348241 0.206696 0
0.842212 0.350563 0
0.803398 0.343839 0
0.679425 0.533227 0
0.664063 0.167932 0
0.375076 0.035331 0
0.781250 0.000000 0
0.618557 0.230551 0
1.000000 0.593750 0
0.577433 0.663849 0
0.575904 0.396616 0
0.611430 0.402767 0
0.555017 0.425925 0
0.652366 0.473640 0
0.518375 0.468346 0
0.538773 0.501348 0
0.478607 0.466421 0
0.302515 0.337772 0
0.391184 0.721341 0
0.170253 0.344068 0
0.373046 0.329927 0
0.346697 0.304311 0
0.117180 0.461447 0
0.219611 0.658253 0
0.261407 0.592148 0
0.256798 0.907687 0
0.031247 0.661783 0
0.041364 0.383351 0
0.000000 0.406250 0
0.218750 0.000000 0
0.000000 0.093750 0
0.125606 0.177788 0
0.236025 0.160915 0
0.228409 0.125275 0
0.319641 0.932524 0
0.306997 0.965302 0
0.293852 0.908442 0
0.598091 0.727987 0
0.365137 0.880918 0
0.377280 0.966435 0
0.665044 0.892626 0
0.765760 0.847284 0
0.656250 1.000000 0
0.238653 0.306062 0
0.036578 0.318113 0
0.000000 0.343750 0
0.061697 0.233982 0
0.883786 0.774884 0
0.882262 0.730904 0
0.850892 0.619591 0
0.841792 0.661056 0
0.800611 0.735773 0
0.771296 0.714996 0
0.761092 0.900646 0
0.933566 0.883097 0
0.781250 1.000000 0
0.744666 0.283821 0
0.782985 0.277091 0
0.176242 0.548097 0
0.606166 0.159346 0
0.570997 0.961169 0
0.606637 0.968571 0
0.705831 0.234103 0
0.180269 0.075608 0
0.281250 0.000000 0
0.624047 0.538820 0
0.290713 0.555974 0
0.163712 0.238467 0
0.203893 0.478975 0
0.124864 0.412253 0
0.289502 0.110831 0
0.260263 0.212824 0
0.000000 0.156250 0
0.678192 0.963210 0
0.954006 0.954006 0
0.718750 1.000000 0
0.843750 1.000000 0
0.779381 0.561586 0
0.067641 0.590539 0
0.036449 0.570180 0
0.032501 0.527675 0
0.547807 0.724673 0
0.056568 0.037335 0
0.659864 0.348273 0
0.365327 0.412830 0
0.335974 0.385138 0
0.395548 0.820828 0
0.671312 0.593636 0
0.759121 0.783180 0
0.662288 0.833424 0
0.833247 0.863557 0
0.752232 0.084821 0
0.781250 0.106585 0
0.717228 0.101055 0
0.000000 0.968750 0
0.072394 0.769396 0
0.032402 0.813231 0
0.193353 0.856742 0
0.184435 0.897269 0
0.406250 0.000000 0
0.259418 0.839765 0
0.333650 0.809828 0
0.343750 0.000000 0
0.346959 0.076220 0
0.423566 0.215016 0
0.682292 0.067708 0
0.083206 0.314977 0
0.190511 0.416539 0
0.083164 0.642561 0
0.518737 0.878956 0
0.482046 0.902830 0
0.315762 0.517542 0
0.663084 0.125979 0
0.259785 0.031974 0
0.430980 0.861259 0
0.501040 0.288125 0
0.417444 0.299345 0
0.451710 0.345085 0
0.229795 0.722038 0
0.315799 0.688824 0
0.570200 0.170562 0
0.537038 0.154817 0
[...]
POINT_DATA 666
SCALARS pressure float 1
LOOKUP_TABLE default
0
0
0
0
0
0
0
0
0
0
0
0
0
0
0
0
0
0
0
0
0
0
0
0
0
0
0
0
0
0
0
0
0
0
0
0
0
0
0
0
0
0
0
0
0
0
0
0
0
0
0
0
0
0
0
0
0
0
0
0
0
0
0
0
0
0
0
0
0
0
0
0
0
0
0
0
0
0
0
0
0
0
0
0
0
0
0
0
0
0
0
0
0
0
0
0
0
0
0
0
0
0
0
0
0
0
0
0
0
0
0
0
0
0
0
0
0
0
0
0
0
0
0
0
0
0
0
0
0
0
0
0
0
0
0
0
0
0
0
0
0
0
0
0
0
0
0
0
0
0
0
0
0
0
0
0
0
0
0
0
0
0
0
0
0
0
0
0
0
0
0
0
0
0
0
0
0
0
0
0
0
0
0
0
0
0
0
0
0
0
0
0
0
0
0
0
0
0
0
0
0
0
0
0
0
0
0
0
0
0
0
0
0
0
0
0
0
0
0
0
0
0
0
0
0
0
0
0
0
0
0
0
0
0
0
0
0
0
0
0
0
0
0
0
0
0
0
0
0
0
0
0
0
0
0
0
0
0
0
0
0
0
0
0
0
0
0
0
0
0
0
0
0
0
0
0
0
0
0
0
0
0
0
0
0
0
0
0
0
0
0
0
0
0
0
0
0
0
0
0
0
0
0
0
0
0
0
0
0
0
0
0
0
0
0
0
0
0
0
0
0
0
0
0
0
0
0
0
0
0
0
0
0
0
0
0
0
0
0
0
0
0
0
0
0
0
0
0
0
0
0
0
0
0
0
0
0
0
0
0
0
0
0
0
0
0
0
0
0
0
0
0
0
0
0
0
0
0
0
0
0
0
0
0
0
0
0
0
0
0
0
0
0
0
0
0
0
0
0
0
0
0
0
0
0
0
0
0
0
0
0
0
0
0
0
0
0
0
0
0
0
0
0
0
0
0
0
0
0
0
0
0
0
0
0
0
0
0
0
0
0
0
0
0
0
0
0
0
0
0
0
0
0
0
0
0
0
0
0
0
0
0
0
0
0
0
0
0
0
0
0
0
0
0
0
0
0
0
0
0
0
0
0
0
0
0
0
0
0
0
0
0
0
0
0
0
0
0
0
0
0
0
0
0
0
0
0
0
0
0
0
0
0
0
0
0
0
0
0
0
0
0
0
0
0
0
0
0
0
0
0
0
0
0
0
0
0
0
0
0
0
0
0
0
0
0
0
0
0
0
0
0
0
0
0
0
0
0
0
0
0
0
0
0
0
0
0
0
0
0
0
0
0
0
0
0
0
0
0
0
0
0
0
0
0
0
0
0
0
0
0
0
0
0
0
0
0
0
0
0
0
0
0
0
0
0
0
0
0
0
0
0
0
0
0
0
0
0
0
0
0
0
0
0
0
0
0
0
0
0
0
0
0
0
0
0
0
0
0
0
0
0
0
0
0
0
0
0
0
0
0
0
0
0
0
0
0
0
0
0
0
0
0
0
0
0
VECTORS displacement float
0 0 0
0 3 0
2 3 0
2 0 0
0.500158 0.750957 0
0.5 0 0
0 0.75 0
0.5 3 0
2 0.75 0
0.125696 1.68742 0
1.12485 0.187971 0
1.12542 1.68835 0
0.125479 0.749967 0
0 1.6875 0
0.125 3 0
0.281822 2.29804 0
0.0311617 2.29665 0
0.124997 2.29651 0
0.28125 3 0
0.633172 1.98108 0
0.0319058 1.68761 0
0.0710264 1.17186 0
0.0319996 0.798929 0
0 0.1875 0
0 1.17187 0
0 0.421875 0
0.0177188 1.29081 0
0.0702047 0.292566 0
0.0144217 0.2919 0
0.0371106 0.498875 0
0 2.29687 0
0.03125 3 0
0.46906 2.37987 0
1.125 3 0
0.742972 1.23213 0
0.356473 1.48342 0
0.206865 1.13028 0
0.217657 1.49126 0
0.3738 1.04718 0
0.520041 1.28446 0
0.281562 0.682611 0
0.464374 0.187189 0
0.172098 0.437451 0
0.419955 0.426725 0
0.125 0 0
0.807051 0.445779 0
0.278661 0.262657 0
0.266126 0.0477864 0
0.602681 0.323931 0
1.125 0 0
0.758927 0.123008 0
0.872748 0.254233 0
1.03292 0.047967 0
0.52748 0.0483579 0
2 0.1875 0
1.53125 0 0
0.78125 0 0
1.51337 0.0722403 0
0.749094 0.0300712 0
0.28125 0 0
0.0868134 0.0713887 0
0.0223737 0.120008 0
0 0.046875 0
0.03125 0 0
0.0194121 0.0290171 0
1.5319 0.239571 0
1.21645 0.460457 0
2 0.421875 0
0.98431 0.813808 0
1.59815 0.574881 0
2 1.6875 0
1.48715 1.12357 0
1.65772 0.84518 0
2 1.17188 0
2 0.046875 0
0.151478 0.178112 0
0.154224 0.0244415 0
0.728628 0.705728 0
1.05509 1.21226 0
0.78125 3 0
0.945924 2.29686 0
0.827666 1.6526 0
1.53169 1.631 0
1.39509 2.32001 0
1.53125 3 0
2 2.29688 0
1.67856 2.04245 0
1.68761 2.53106 0
0.285802 1.84191 0
0.622773 0.191957 0
0.0098091 0.997533 0
0.0375804 1.01708 0
0.656959 0.070516 0
2 0.949219 0
0.645538 1.51541 0
0.133872 1.33018 0
0 0.292969 0
0.00806831 1.54957 0
0.0105258 0.43745 0
0.00847206 0.188441 0
0.517009 0.999432 0
0.468538 0.299109 0
0.195312 0 0
0.58478 0.526076 0
0.796767 0.947372 0
0.176765 0.0838939 0
0.274604 0.133437 0
0.385537 0.0797531 0
1.00479 0.376067 0
0.982351 0.573769 0
0.945313 0 0
0.632812 0 0
0.863824 0.0680774 0
0 0.0117188 0
0.0363649 0.208523 0
0.00807725 0.0688251 0
0.0660663 0.0140223 0
0.0411752 0.064858 0
1.3006 0.825055 0
1.74133 1.07779 0
2 1.41797 0
2 2.63672 0
1.7506 1.74562 0
2 1.98047 0
1.75781 3 0
0.1953 2.0532 0
0.382564 2.07323 0
0.484452 1.72151 0
0.606903 0.0147685 0
0.0078125 0 0
1.13253 0.975457 0
1.18053 0.643473 0
0.090362 0.453269 0
0.356252 2.63743 0
0.0665422 0.65329 0
0.632866 2.62508 0
0.808202 2.57981 0
0.267956 0.915507 0
0.2973 1.24089 0
0.373046 0.809781 0
0.281905 0.429668 0
0.18314 0.28828 0
1.68333 0.380835 0
2 0.292969 0
1.42035 0.368129 0
1.20662 0.305221 0
0.897072 1.37534 0
2 0.574219 0
1.2924 1.38317 0
0.960522 1.91763 0
1.16223 2.12782 0
1.13217 2.54402 0
1.37564 1.92448 0
1.32031 3 0
0.912288 0.0148413 0
0.0812639 0.157113 0
1.70403 1.37157 0
0.195519 2.63685 0
0.00771136 1.98024 0
1.69849 0.0178709 0
0.126536 1.00459 0
0.0702605 2.63635 0
0.00771674 2.63665 0
0.0701562 1.98102 0
0.0708469 1.48329 0
0.187776 0.616959 0
1.29725 0.0197743 0
1.32031 0 0
0.386981 0.0153937 0
1.36033 0.145402 0
1.17121 0.0970486 0
1.70936 0.139092 0
0.00986451 0.636216 0
0.0175448 0.53307 0
1.36389 0.271462 0
1.84593 0.848049 0
1.78821 0.668424 0
0.0736445 0.872899 0
0.00532768 1.75864 0
0.00386316 0.347004 0
0.122217 0.579175 0
0 1.41797 0
0.049613 0.119232 0
0.70278 2.29168 0
0.268429 1.07851 0
0.766789 1.44779 0
0.282558 1.42762 0
0.432932 0.922987 0
0.390033 0.602367 0
0.158862 0.00509023 0
0.237925 0.342573 0
0.360762 0.321223 0
0.362683 0.217505 0
0.387678 0.141064 0
0.982435 0.123253 0
1.22181 0.004395 0
0.785713 0.00770258 0
0.00353567 0.0268273 0
0.0115566 0.00782911 0
0 0.105469 0
0.0427344 0.0296268 0
1.77268 0.238265 0
0.888983 1.13017 0
1.11021 0.535352 0
1.80313 0.496237 0
1.59108 0.991623 0
1.31234 1.02284 0
1.33674 1.19797 0
1.05671 1.45031 0
0.972634 1.6441 0
1.8244 1.23292 0
1.85991 2.46391 0
0.538169 0.239528 0
0.0380665 1.19917 0
0.539538 0.112827 0
0.00331471 0.25556 0
1.13616 0.380496 0
1.13768 0.792566 0
0.0366146 0.298231 0
1.3723 0.57133 0
1.82681 1.93585 0
1.64339 2.79147 0
1.43187 2.66717 0
0.124154 0.344958 0
0.632813 3 0
0.945313 3 0
0.212008 0.777884 0
0.224672 0.506857 0
0.217496 0.202508 0
1.85781 0.355724 0
1.04702 0.269811 0
0.964468 2.61581 0
0.0649894 0.216127 0
1.63095 1.20655 0
1.19787 0.0473859 0
1.33125 0.0771384 0
0.491754 0.0169254 0
1.42372 0.00605493 0
1.47736 0.0290037 0
0 0.574219 0
0.0847438 1.01937 0
0.00457242 1.29155 0
0.574496 2.23907 0
0.508321 1.99276 0
0.819585 2.32237 0
0.476479 0.533874 0
0.348363 0.49185 0
1.07482 0.015162 0
0.00558628 0.122915 0
0.0313357 0.00770304 0
0.980905 0.98659 0
1.18961 1.13627 0
0.471248 0.0793877 0
0.642936 0.125022 0
0.0269636 0.391447 0
1.47915 0.723095 0
1.48617 0.474756 0
1.28766 2.52551 0
0.11167 0.242697 0
0.724732 2.76219 0
0.205692 0.1335 0
0.974211 0.193647 0
0.00364873 0.530484 0
1.45854 0.87894 0
1.22148 2.77682 0
0.121772 0.114051 0
0.721301 0.264128 0
0.715496 0.364405 0
0.785491 0.190501 0
0.303188 2.06542 0
0.204956 2.33615 0
1.21175 1.88729 0
1.32052 1.6474 0
0.034978 1.45031 0
0.371512 2.34696 0
0.457311 2.6924 0
0.269855 2.68092 0
0.62996 1.30498 0
0.150413 1.15565 0
0 0.949219 0
0.00710859 0.806987 0
0.379721 1.78992 0
0.453483 1.13909 0
0.383675 1.27729 0
0.18906 1.3114 0
0.529138 1.50442 0
0.84354 0.787164 0
0.199346 0.0439784 0
0.239745 0.0113685 0
0.305589 0.0209614 0
0.871479 0.348066 0
1.53138 0.159603 0
1.54714 1.86739 0
1.7562 0.0672676 0
2 0.105469 0
0.62233 0.850959 0
0.64611 1.05978 0
0.696868 1.74643 0
0.587147 1.70063 0
0.786886 1.99958 0
0.0904083 1.32277 0
0.157497 1.51468 0
0.194466 1.75425 0
0.131717 0.0565046 0
0.305438 0.0835876 0
0.931142 0.464021 0
0.827275 0.588227 0
0.707867 0.5297 0
1.82965 1.53573 0
0.127188 1.98193 0
0.0650565 0.530166 0
0.382813 3 0
1.55545 0.322474 0
1.02661 2.11212 0
1.3077 2.12644 0
0.0764179 1.72281 0
0.0329651 0.638719 0
1.27352 0.204038 0
0.160396 0.870791 0
0.285882 0.555568 0
0.0566945 0.390558 0
0.206823 0.963879 0
0.0314076 1.98078 0
0.124664 2.63598 0
0.0703125 3 0
0.00747022 2.2966 0
0.0700508 2.29651 0
0.0311684 2.6365 0
0.602657 0.673162 0
1.75781 0 0
1.5812 2.2856 0
0.526646 0.411987 0
0.0703125 0 0
0.195312 3 0
0 1.98047 0
2 0.0117187 0
1.82599 0.0059177 0
0.0078125 3 0
0 2.63672 0
0.382812 0 0
1.49085 1.3815 0
0.300131 1.62695 0
0.00468354 1.1249 0
0.00270334 1.00208 0
0.0140248 1.13679 0
0.0211867 1.02994 0
0.018428 0.890679 0
0.330531 2.21984 0
1.86775 0.744653 0
0.0860327 0.363869 0
0.246676 2.12902 0
0.237038 1.93748 0
0.569324 1.38559 0
0.0571221 1.32266 0
0.00293402 0.421798 0
0 1.83105 0
0.106782 1.14769 0
0.705078 3 0
0.881768 1.00067 0
0.315875 0.995707 0
0.325127 1.12196 0
0.363203 0.924016 0
0.448988 1.27674 0
0.438901 0.806513 0
0.502769 0.870441 0
0.435206 0.687229 0
0.22887 0.274558 0
1.04037 0.458841 0
0.2367 0.0871129 0
0.217744 0.417776 0
0.18533 0.360612 0
0.426069 0.0414562 0
0.867178 0.145318 0
0.702681 0.205461 0
1.64826 0.198231 0
0.87703 0.00333606 0
0.294176 0.00600409 0
0.330078 0 0
0 0.143555 0
0.0175781 0 0
0.0629562 0.0469758 0
0.0522394 0.167242 0
0.031933 0.155724 0
1.73947 0.307344 0
1.86395 0.283316 0
1.65107 0.25996 0
1.05977 1.07362 0
1.55236 0.401022 0
1.8686 0.427695 0
1.59467 1.32639 0
1.43664 1.75973 0
2 1.29199 0
0.187561 0.171954 0
0.202312 0.0051565 0
0.236328 0 0
0.109989 0.0121731 0
1.20115 2.34316 0
1.06883 2.33533 0
0.768413 2.17283 0
0.874077 2.12599 0
1.08288 1.92281 0
1.02293 1.78541 0
1.62269 1.73794 0
1.56089 2.61462 0
2 1.83105 0
0.161349 1.66382 0
0.15421 1.83979 0
0.602187 0.0940332 0
0.0515003 1.10324 0
1.84812 0.978876 0
1.87597 1.10569 0
0.109953 1.49455 0
0.0117954 0.0988732 0
0 0.237305 0
0.581316 1.16821 0
0.618696 0.254214 0
0.113681 0.0807742 0
0.459226 0.12467 0
0.339651 0.0467912 0
0.0260433 0.252691 0
0.0908209 0.203821 0
0.0488281 0 0
1.85543 1.37986 0
1.81975 2.73035 0
2 1.5498 0
2 2.13574 0
0.631277 1.82262 0
0.698128 0.013857 0
0.649499 0.00484934 0
0.557536 0.0031676 0
1.05054 0.900575 0
0.0027704 0.00960887 0
0.242394 1.30595 0
0.341069 0.400606 0
0.296783 0.338514 0
1.34824 0.469749 0
0.705034 1.35251 0
1.22753 1.72968 0
1.38932 1.31581 0
1.49173 2.08192 0
0.0148515 1.69724 0
0.0233833 1.83186 0
0.021291 1.54331 0
1.87695 0 0
1.18465 0.0160894 0
1.32294 0.00335527 0
1.46874 0.112517 0
1.61073 0.102714 0
0 0.495117 0
1.41113 0.202431 0
1.3127 0.335728 0
0 0.354492 0
0.0119835 0.361183 0
0.0925425 0.538222 0
0.00971712 1.39739 0
0.198525 0.0209512 0
0.347823 0.109751 0
0.827341 0.0212011 0
1.5455 0.806755 0
1.63129 0.698046 0
0.535694 0.298628 0
0.0317461 1.31886 0
0.00258525 0.202214 0
1.48387 0.55783 0
0.165638 0.753254 0
0.179509 0.523156 0
0.238655 0.612543 0
1.04321 0.158889 0
0.949903 0.299804 0
0.0586875 0.975878 0
0.048699 0.865567 0
0.0614666 0.763977 0
0.0911981 0.775126 0
0.107082 0.887495 0
0 1.29199 0
1.11203 0.00408636 0
0.0124748 0.145707 0
0.00293911 0.0892456 0
1.16709 1.30312 0
1.40037 0.791656 0
0.649766 2.80966 0
0.550564 2.7718 0
0.161219 0.123616 0
1.35389 0.917884 0
1.33575 2.79111 0
0.794073 0.374335 0
0.343248 1.93192 0
0.665674 1.18369 0
0.39472 1.15616 0
0.257557 0.025972 0
0.800028 0.298607 0
0.539826 1.83338 0
0.857728 0.509281 0
1.66917 1.54733 0
1.86706 1.67865 0
1.17947 0.240132 0
0.166663 1.029 0
0.328647 0.622561 0
0.333906 0.725017 0
0.285713 0.797264 0
0.227687 0.871633 0
0.00256538 1.905 0
2 0.00292969 0
0.246782 1.70227 0
0.3272 1.75343 0
0.435805 0.0231426 0
0.895509 0.10249 0
0.987674 0.0784614 0
1.06709 0.101282 0
0.878363 0.194861 0
0.702298 0.155963 0
0.0206234 0.00412322 0
0.124797 0.00428139 0
0.0841114 0.00420503 0
0.0905436 0.0306406 0
0.538617 0.076772 0
1.71544 0.952507 0
0.0881052 1.59023 0
0.517812 1.11721 0
1.87695 3 0
2 2.81543 0
1.82351 2.15985 0
0.705078 0 0
1.23925 0.386135 0
0.00226847 0.154993 0
0.147498 0.655847 0
0.0324781 0.913166 0
0.0426259 0.719506 0
0.0983091 0.66197 0
0.544639 2.51796 0
0.102287 0.0492561 0
1.7417 2.33302 0
0.114593 0.160969 0
0.0494726 1.58373 0
0.413602 2.51728 0
0.226393 2.81648 0
0.00356861 0.703939 0
0.00166853 0.611962 0
0.0341453 0.0958519 0
0.433012 1.92434 0
0.645344 2.15745 0
0.850809 1.50382 0
0.160359 2.46022 0
0.129679 0.47463 0
0.466806 0.372417 0
0.676331 0.621396 0
0.0871821 0.110248 0
0.526536 0.486418 0
0.441623 0.00371181 0
0.00250346 0.0486654 0
0.912352 0.676355 0
1.20288 0.882747 0
0.646948 0.441289 0
0.993519 1.32862 0
0.318272 2.46455 0
0.0165713 0.735672 0
0.437448 1.54201 0
0.472497 1.41245 0
0.381837 1.62596 0
0.695587 0.936606 0
0.705224 0.815854 0
0.405153 0.267457 0
0.174214 0.225413 0
0.332568 0.265815 0
0.326433 0.164673 0
0.26965 0.186879 0
1.04792 0.686192 0
0.0104984 0.0418741 0
0.0203967 0.062284 0
1.39023 1.49771 0
0.495899 2.18651 0
0.570758 2.06838 0
0.247752 2.47429 0
0.439453 3 0
0.626364 2.40731 0
1.06831 2.76425 0
0.973409 2.80909 0
0.709898 1.91397 0
0.789508 1.81483 0
0.86489 1.91021 0
0.707923 2.07021 0
0.333017 1.35057 0
0.519133 0.630739 0
0.142134 0.281631 0
0.958443 1.49045 0
1.85738 0.580809 0
0.892759 2.47048 0
0.99223 0.0253064 0
0.0603869 0.0830436 0
1.42383 0 0
0.0502772 1.82671 0
1.40095 0.0169803 0
0.552742 0.0280764 0
0.642091 0.0362325 0
1.32414 0.0432167 0
1.433 0.0505798 0
0.81095 1.32159 0
0.723807 1.5891 0
0.404459 0.18366 0
0 0.0263672 0
1.18514 1.50905 0
1.0572 1.58793 0
1.23332 0.735883 0
1.11333 0.0660518 0
1.23149 0.0720969 0
1.27873 0.112029 0
1.18676 0.142427 0
1.58588 0.00602104 0
1.5747 0.0176781 0
1.70423 0.00346899 0
0.409894 0.513446 0
1.11412 0.0324026 0
0.0991455 0.300506 0
0.674831 0.310322 0
0.166321 2.21336 0
0.397953 2.79196 0
0.318404 2.81662 0
0 0.84668 0
0.591467 0.963234 0
0.74451 1.07477 0
0.816204 0.686065 0
0.103319 1.83428 0
0.572824 0.769241 0
0.9016 0.880323 0
1.49691 2.43656 0
0.0521915 0.00449524 0
0.00195312 0 0
0.59278 0.390091 0
0.407757 1.40586 0
0.779014 0.845955 0
0.424877 2.22372 0
0.901457 1.75503 0
0.897888 0.0380654 0
1.34751 0.680218 0
0.0031903 0.88605 0
0.096863 2.46539 0
0.0970314 2.81725 0
0.00324604 2.46588 0
0.0963371 2.1372 0
0 1.5498 0
0.00272645 2.13736 0
0.0187739 2.4657 0
0.757361 0.0765225 0
1.24683 0.554265 0
0.0500798 2.46566 0
0.0189285 2.81742 0
0.00331323 2.81749 0
2 0.0732422 0
0.713192 2.508 0
1.83645 0.175802 0
2 0.143555 0
1.85266 0.122099 0
1.87018 0.083928 0
0.541769 0.166199 0
1.83229 0.0338287 0
2 0.0263672 0
1.87723 0.0170822 0
0.0500619 2.13789 0
0.0187909 2.1377 0
0.158942 2.81651 0
0.0501907 2.81734 0
0.355978 0.00430249 0
1.64882 0.475833 0
0.990864 0.00409699 0
0.855657 2.8056 0
1.62507 0.042931 0
VECTORS displacementExact float
0 0 0
0 3 0
2 3 0
2 0 0
0.5 0.75 0
0.5 0 0
0 0.75 0
0.5 3 0
2 0.75 0
0.125 1.6875 0
1.125 0.1875 0
1.125 1.6875 0
0.125 0.75 0
0 1.6875 0
0.125 3 0
0.28125 2.29688 0
0.03125 2.29688 0
0.125 2.29688 0
0.28125 3 0
0.632813 1.98047 0
0.03125 1.6875 0
0.0703125 1.17188 0
0.03125 0.797607 0
0 0.1875 0
0 1.17188 0
0 0.421875 0
0.0175781 1.29199 0
0.0703125 0.292969 0
0.0138889 0.292969 0
0.0366753 0.498541 0
0 2.29688 0
0.03125 3 0
0.469238 2.37964 0
1.125 3 0
0.742676 1.2312 0
0.355957 1.48315 0
0.206633 1.1304 0
0.217951 1.49197 0
0.373429 1.04597 0
0.519735 1.28439 0
0.28125 0.682318 0
0.463789 0.1875 0
0.171411 0.436813 0
0.419554 0.427332 0
0.125 0 0
0.806978 0.445156 0
0.278672 0.262633 0
0.266488 0.0473983 0
0.602671 0.323407 0
1.125 0 0
0.758363 0.123244 0
0.872168 0.252708 0
1.03281 0.046875 0
0.527434 0.0481427 0
2 0.1875 0
1.53125 0 0
0.78125 0 0
1.51231 0.0707192 0
0.749147 0.0305801 0
0.28125 0 0
0.0863891 0.0712095 0
0.0211503 0.11963 0
0 0.046875 0
0.03125 0 0
0.0192428 0.0288643 0
1.53125 0.239593 0
1.2162 0.460148 0
2 0.421875 0
0.984521 0.814133 0
1.59847 0.574219 0
2 1.6875 0
1.48725 1.12487 0
1.65779 0.845126 0
2 1.17188 0
2 0.046875 0
0.151175 0.177438 0
0.153997 0.0244766 0
0.728346 0.705227 0
1.05507 1.21105 0
0.78125 3 0
0.945313 2.29688 0
0.827488 1.65253 0
1.53125 1.631 0
1.39444 2.31991 0
1.53125 3 0
2 2.29688 0
1.67859 2.04471 0
1.68764 2.53146 0
0.285461 1.8413 0
0.622466 0.191253 0
0.00929084 0.998019 0
0.0366448 1.01704 0
0.656876 0.0705297 0
2 0.949219 0
0.645865 1.5155 0
0.13348 1.33041 0
0 0.292969 0
0.0078125 1.5498 0
0.00981504 0.436854 0
0.0082609 0.189175 0
0.516739 0.998586 0
0.467978 0.300107 0
0.195313 0 0
0.585277 0.526351 0
0.796004 0.946886 0
0.176864 0.0837837 0
0.274655 0.133207 0
0.385499 0.0802521 0
1.00548 0.375836 0
0.982165 0.573538 0
0.945313 0 0
0.632813 0 0
0.863079 0.0677133 0
0 0.0117188 0
0.0366753 0.208161 0
0.00715482 0.0682122 0
0.0664999 0.014064 0
0.0405113 0.0647693 0
1.2996 0.824396 0
1.74089 1.07647 0
2 1.41797 0
2 2.63672 0
1.75055 1.74564 0
2 1.98047 0
1.75781 3 0
0.195313 2.0531 0
0.382077 2.07203 0
0.484995 1.72136 0
0.606977 0.0140023 0
0.0078125 0 0
1.13214 0.974214 0
1.1803 0.642646 0
0.0907731 0.452356 0
0.355957 2.63672 0
0.0665083 0.653342 0
0.632813 2.62418 0
0.808065 2.57906 0
0.268307 0.915558 0
0.297058 1.24043 0
0.372839 0.809654 0
0.28179 0.429819 0
0.182932 0.288293 0
1.68318 0.380247 0
2 0.292969 0
1.41962 0.368138 0
1.20585 0.304105 0
0.896727 1.37488 0
2 0.574219 0
1.29182 1.3837 0
0.95969 1.9175 0
1.16216 2.12799 0
1.13147 2.54361 0
1.37501 1.92519 0
1.32031 3 0
0.911616 0.0144697 0
0.0812792 0.156756 0
1.70403 1.37161 0
0.195313 2.63672 0
0.0078125 1.98047 0
1.6983 0.0184904 0
0.12607 1.00454 0
0.0703125 2.63672 0
0.0078125 2.63672 0
0.0703125 1.98047 0
0.0703125 1.48315 0
0.187277 0.616423 0
1.29681 0.0193493 0
1.32031 0 0
0.386582 0.014915 0
1.35979 0.145302 0
1.17074 0.0969504 0
1.70884 0.139811 0
0.00935925 0.636319 0
0.0169294 0.533112 0
1.36386 0.27114 0
1.84577 0.84668 0
1.78731 0.667146 0
0.0733059 0.872889 0
0.00439453 1.75854 0
0.00347222 0.347449 0
0.121734 0.578501 0
0 1.41797 0
0.0491032 0.118616 0
0.702672 2.29102 0
0.268676 1.0789 0
0.7667 1.44705 0
0.282261 1.42849 0
0.432588 0.923506 0
0.389352 0.601529 0
0.158203 0.00476069 0
0.237816 0.34261 0
0.360513 0.321528 0
0.362072 0.216081 0
0.386612 0.141169 0
0.982026 0.123226 0
1.2207 0.0042542 0
0.785684 0.00796991 0
0.00390064 0.0263672 0
0.0111706 0.00782185 0
0 0.105469 0
0.0425424 0.0295767 0
1.77246 0.237305 0
0.889434 1.13024 0
1.10988 0.535525 0
1.80246 0.495117 0
1.59071 0.991039 0
1.31307 1.02162 0
1.33643 1.19854 0
1.05564 1.44944 0
0.971752 1.64355 0
1.82487 1.23301 0
1.85998 2.46387 0
0.538134 0.238506 0
0.0380162 1.19964 0
0.53909 0.112849 0
0.00347222 0.255419 0
1.13491 0.380508 0
1.13742 0.792317 0
0.0366753 0.298789 0
1.37205 0.570487 0
1.82646 1.93642 0
1.64258 2.78997 0
1.43037 2.66648 0
0.12404 0.345219 0
0.632813 3 0
0.945313 3 0
0.211678 0.77857 0
0.224718 0.506317 0
0.216846 0.20262 0
1.8574 0.354492 0
1.04683 0.269266 0
0.964466 2.61568 0
0.0649071 0.215674 0
1.63107 1.20733 0
1.19709 0.047171 0
1.3305 0.076668 0
0.490766 0.0163852 0
1.42383 0.00562732 0
1.47615 0.0287226 0
0 0.574219 0
0.0844745 1.01948 0
0.00347222 1.29199 0
0.57397 2.23863 0
0.508318 1.99122 0
0.819343 2.32172 0
0.475739 0.533476 0
0.34785 0.491653 0
1.07412 0.0143135 0
0.00495268 0.121803 0
0.0319078 0.00797518 0
0.980291 0.986028 0
1.18954 1.13574 0
0.47065 0.0796443 0
0.642803 0.125395 0
0.0268613 0.392308 0
1.47906 0.722954 0
1.48603 0.474268 0
1.2873 2.52538 0
0.111696 0.242465 0