# vtk DataFile Version 3.0
2D scalar data
ASCII
DATASET UNSTRUCTURED_GRID
POINTS 341 float
0.000000 0.000000 0
1.000000 0.000000 0
1.000000 1.000000 0
0.000000 1.000000 0
0.500000 0.500000 0
0.000000 0.500000 0
0.500000 0.000000 0
1.000000 0.500000 0
0.500000 1.000000 0
0.750000 0.250000 0
0.250000 0.750000 0
0.750000 0.750000 0
0.500000 0.250000 0
0.750000 0.000000 0
1.000000 0.250000 0
0.875000 0.375000 0
0.875000 0.125000 0
0.875000 0.250000 0
1.000000 0.375000 0
0.812500 0.562500 0
0.750000 0.125000 0
0.625000 0.187500 0
0.515625 0.125000 0
0.250000 0.000000 0
0.625000 0.000000 0
0.375000 0.000000 0
0.656250 0.093750 0
0.312500 0.187500 0
0.312500 0.083333 0
0.407652 0.135417 0
0.875000 0.000000 0
1.000000 0.125000 0
0.890625 0.484375 0
1.000000 0.750000 0
0.640625 0.609375 0
0.703125 0.421875 0
0.613839 0.321429 0
0.705212 0.330115 0
0.590473 0.432104 0
0.654316 0.509772 0
0.476906 0.375000 0
0.250000 0.481554 0
0.381582 0.292755 0
0.377417 0.458014 0
0.000000 0.250000 0
0.385208 0.635208 0
0.295879 0.373278 0
0.125696 0.365026 0
0.328333 0.548940 0
0.000000 0.750000 0
0.202686 0.615777 0
0.290234 0.660366 0
0.125000 0.718613 0
0.126679 0.513534 0
0.250000 1.000000 0
0.000000 0.875000 0
0.000000 0.625000 0
0.153535 0.869571 0
0.100962 0.612024 0
0.000000 0.375000 0
0.154067 0.207833 0
0.199692 0.102836 0
0.125000 0.000000 0
0.000000 0.125000 0
0.098089 0.098089 0
0.282603 0.875000 0
0.391641 0.779808 0
0.375000 1.000000 0
0.520939 0.701613 0
0.437500 0.893999 0
0.750000 1.000000 0
0.612338 0.862338 0
0.530762 0.910436 0
0.625000 1.000000 0
0.125000 1.000000 0
0.243199 0.274932 0
0.090326 0.277486 0
0.484846 0.603468 0
0.635362 0.726316 0
1.000000 0.625000 0
0.875000 0.687500 0
0.742188 0.643229 0
0.737338 0.875000 0
0.879376 0.834998 0
1.000000 0.875000 0
0.875000 1.000000 0
0.825573 0.916130 0
0.918597 0.918597 0
0.783433 0.377797 0
0.252489 0.557883 0
0.576778 0.068157 0
0.582250 0.135360 0
0.153329 0.573095 0
0.562500 1.000000 0
0.710750 0.568272 0
0.665935 0.258341 0
0.312500 0.000000 0
0.718750 0.062500 0
0.381599 0.070054 0
0.251114 0.064269 0
0.576942 0.508301 0
0.316284 0.483724 0
0.000000 0.312500 0
0.418868 0.540961 0
0.561808 0.630874 0
0.167116 0.297375 0
0.210718 0.370577 0
0.163556 0.439032 0
0.353947 0.709042 0
0.437241 0.700773 0
0.000000 0.687500 0
0.000000 0.562500 0
0.150237 0.656916 0
0.062500 0.000000 0
0.263414 0.135417 0
0.150789 0.059811 0
0.068469 0.182346 0
0.146935 0.142322 0
0.524212 0.806102 0
0.599020 0.932976 0
0.687500 1.000000 0
0.937500 1.000000 0
0.762812 0.935561 0
0.812500 1.000000 0
1.000000 0.937500 0
0.827265 0.312500 0
0.831070 0.437079 0
0.757487 0.492441 0
0.068319 0.550898 0
0.000000 0.062500 0
0.569858 0.752376 0
0.462834 0.768211 0
0.388311 0.213041 0
0.937500 0.421875 0
0.466670 0.182357 0
0.935268 0.562500 0
0.927193 0.635636 0
0.552436 0.366269 0
0.643022 0.385394 0
0.519504 0.431763 0
0.378514 0.375360 0
0.309996 0.302434 0
0.356018 0.917382 0
0.312500 1.000000 0
0.350304 0.842504 0
0.318384 0.776483 0
0.676974 0.669600 0
0.437500 1.000000 0
0.679143 0.803686 0
0.799479 0.692708 0
0.842218 0.762287 0
0.920798 0.752154 0
0.801080 0.829160 0
1.000000 0.812500 0
0.069449 0.675136 0
0.228587 0.201593 0
0.676167 0.923046 0
0.937500 0.312500 0
0.812500 0.062500 0
0.078508 0.921492 0
0.578659 0.251068 0
0.937500 0.187500 0
0.937500 0.062500 0
0.812500 0.187500 0
0.703125 0.187500 0
0.453293 0.306004 0
0.080310 0.805236 0
0.000000 0.812500 0
0.070510 0.439648 0
0.220077 0.824556 0
0.179769 0.765096 0
0.215879 0.924349 0
0.460550 0.068408 0
0.421549 0.092004 0
0.300633 0.825792 0
0.531250 0.960668 0
0.471574 0.945334 0
0.539410 0.191450 0
0.765625 0.046875 0
0.340318 0.041667 0
0.439128 0.246712 0
0.687500 0.000000 0
0.198844 0.156689 0
0.873884 0.592736 0
0.599695 0.366521 0
0.694513 0.619153 0
0.690045 0.375674 0
0.554829 0.465074 0
0.447783 0.441221 0
0.039836 0.281250 0
0.337940 0.344831 0
0.327378 0.424567 0
0.268379 0.425483 0
0.216925 0.439666 0
0.202670 0.700723 0
0.037657 0.781250 0
0.051543 0.626771 0
0.093750 0.044162 0
0.051062 0.074735 0
0.187500 0.000000 0
0.099292 0.145846 0
0.281250 0.941399 0
0.613798 0.666871 0
0.422502 0.744942 0
0.406250 0.949331 0
0.574758 0.891827 0
0.583559 0.810269 0
0.632072 0.817443 0
0.695087 0.726512 0
0.740169 0.697048 0
0.641095 0.955214 0
0.906250 0.964361 0
0.281961 0.518717 0
0.632360 0.137870 0
0.193949 0.519177 0
0.291787 0.041667 0
0.356141 0.753296 0
0.513912 0.754129 0
0.315589 0.135417 0
0.436076 0.828267 0
0.803413 0.955630 0
0.964361 0.906250 0
0.942776 0.845686 0
0.339224 0.249038 0
1.000000 0.562500 0
1.000000 0.687500 0
0.509434 0.325329 0
0.410819 0.335200 0
0.259885 0.329276 0
0.343750 0.963690 0
0.299592 0.723476 0
0.933752 0.694430 0
0.268125 0.180149 0
0.634383 0.903069 0
0.125394 0.773655 0
0.159862 0.815628 0
0.073904 0.495362 0
0.043310 0.843750 0
0.097848 0.859114 0
0.437500 0.000000 0
0.582945 0.205517 0
0.656250 0.041667 0
0.863835 0.535710 0
0.814702 0.504142 0
0.879720 0.640056 0
0.421693 0.487719 0
0.404826 0.417043 0
0.069074 0.732843 0
0.201497 0.049763 0
0.051560 0.126309 0
0.573303 0.700104 0
0.615288 0.771214 0
0.162936 0.485103 0
0.204446 0.566923 0
0.361621 0.115891 0
0.490902 0.859961 0
0.397604 0.861982 0
0.917493 0.802279 0
0.284291 0.236322 0
0.959487 0.602188 0
0.210902 0.320881 0
0.254460 0.697919 0
0.420545 0.043800 0
0.541209 0.853844 0
0.961985 0.781250 0
0.194821 0.246446 0
0.295914 0.600082 0
0.348466 0.597549 0
0.252408 0.626393 0
0.829616 0.389467 0
0.882382 0.319882 0
0.793170 0.778204 0
0.740951 0.812402 0
0.695313 0.132813 0
0.884496 0.430950 0
0.947329 0.478075 0
0.945313 0.367188 0
0.659513 0.561229 0
0.620687 0.274029 0
0.562500 0.000000 0
0.518638 0.056328 0
0.772289 0.435533 0
0.616257 0.475983 0
0.652545 0.437456 0
0.661259 0.307533 0
0.708124 0.514335 0
0.511913 0.649223 0
0.121357 0.315864 0
0.060940 0.345969 0
0.082852 0.391059 0
0.340958 0.660008 0
0.230992 0.875000 0
0.788938 0.879514 0
0.149504 0.937025 0
0.187500 1.000000 0
0.532701 0.557633 0
0.594033 0.568131 0
0.763044 0.590410 0
0.752768 0.541851 0
0.816342 0.627079 0
0.664063 0.212175 0
0.710584 0.280541 0
0.764822 0.311497 0
0.136845 0.256065 0
0.166710 0.390731 0
0.393338 0.682185 0
0.442595 0.643094 0
0.420036 0.594512 0
0.715553 0.956557 0
0.812500 0.251744 0
0.420496 0.179839 0
1.000000 0.437500 0
0.327563 0.881896 0
0.839047 0.716319 0
0.842005 0.808246 0
0.757813 0.195313 0
0.461590 0.128451 0
0.260778 0.797609 0
0.538884 0.283385 0
0.430215 0.377761 0
0.361194 0.168250 0
0.566731 0.321382 0
0.812500 0.125000 0
0.937500 0.250000 0
1.000000 0.187500 0
0.875000 0.062500 0
0.875000 0.187500 0
0.937500 0.125000 0
0.473838 0.549012 0
0.000000 0.937500 0
0.872836 0.889067 0
0.370798 0.513152 0
0.000000 0.187500 0
1.000000 0.312500 0
0.812500 0.000000 0
0.062500 1.000000 0
0.044547 0.955453 0
1.000000 0.062500 0
0.937500 0.000000 0
0.000000 0.437500 0
0.678851 0.863326 0

CELLS 616 2464
3 186 88 35
3 265 155 75
3 266 267 290
3 89 48 266
3 254 173 29
3 90 24 241
3 274 269 15
3 174 144 312
3 15 125 270
3 158 322 20
3 92 58 128
3 159 57 293
3 175 8 176
3 271 150 314
3 132 27 320
3 226 318 321
3 20 164 273
3 17 161 323
3 133 32 274
3 32 133 275
3 324 14 161
3 30 162 325
3 163 326 17
3 15 269 125
3 333 276 157
3 285 277 39
3 80 231 151
3 164 21 213
3 322 163 20
3 22 91 177
3 321 278 36
3 25 98 179
3 178 13 334
3 21 278 240
3 179 28 215
3 279 24 90
3 180 165 42
3 97 181 13
3 321 36 184
3 99 28 114
3 172 6 280
3 61 182 117
3 134 22 177
3 218 27 232
3 325 158 30
3 16 162 327
3 224 79 259
3 281 126 243
3 104 202 250
3 242 183 19
3 321 184 137
3 81 146 185
3 187 282 100
3 278 284 36
3 184 38 137
3 270 17 157
3 138 186 35
3 283 39 282
3 187 38 282
3 285 94 277
3 4 139 187
3 40 139 188
3 42 132 180
3 331 101 43
3 44 189 102
3 246 319 188
3 141 190 46
3 307 328 77
3 101 191 43
3 286 104 250
3 303 287 76
3 203 108 305
3 304 105 260
3 42 227 190
3 168 107 252
3 155 265 60
3 245 103 331
3 305 290 45
3 52 194 170
3 247 234 166
3 58 112 154
3 194 50 268
3 89 266 268
3 49 195 167
3 53 92 128
3 168 289 107
3 89 253 214
3 291 65 201
3 171 291 201
3 52 112 194
3 196 154 110
3 159 329 55
3 154 112 52
3 168 236 5
3 197 62 115
3 288 289 59
3 99 114 61
3 117 115 61
3 199 23 248
3 198 249 63
3 200 117 60
3 232 182 114
3 113 129 0
3 216 230 108
3 229 201 142
3 109 306 286
3 143 54 201
3 130 250 78
3 142 312 256
3 263 206 71
3 66 203 131
3 204 67 229
3 156 233 340
3 152 292 82
3 72 175 176
3 217 130 118
3 210 120 73
3 132 42 223
3 233 205 71
3 171 293 57
3 75 228 260
3 288 102 189
3 76 189 116
3 267 103 307
3 4 100 295
3 148 78 208
3 130 206 118
3 150 151 257
3 135 32 275
3 149 11 209
3 244 299 183
3 146 208 78
3 313 271 149
3 210 119 233
3 85 211 121
3 122 82 292
3 330 83 222
3 264 222 257
3 222 221 87
3 220 70 122
3 121 124 2
3 211 86 330
3 301 9 302
3 133 274 15
3 92 214 253
3 101 212 41
3 91 213 21
3 22 172 280
3 22 90 91
3 213 90 26
3 92 53 214
3 112 92 50
3 285 35 127
3 93 175 119
3 297 94 298
3 164 300 21
3 301 95 164
3 273 97 20
3 99 215 28
3 26 90 241
3 172 239 6
3 98 173 254
3 248 61 115
3 215 23 96
3 296 39 277
3 104 295 296
3 212 48 89
3 192 191 101
3 77 306 307
3 189 76 288
3 245 331 43
3 77 328 295
3 34 146 202
3 265 303 60
3 75 141 228
3 191 192 46
3 252 193 214
3 304 107 289
3 106 192 193
3 203 305 109
3 216 145 230
3 306 45 307
3 217 131 109
3 92 112 58
3 110 154 247
3 111 128 196
3 170 194 10
3 218 114 28
3 198 63 129
3 155 232 258
3 197 115 64
3 248 23 99
3 116 60 303
3 63 249 332
3 200 60 116
3 115 117 64
3 69 219 255
3 131 219 66
3 340 148 272
3 93 119 73
3 70 220 123
3 210 308 120
3 121 211 124
3 308 70 120
3 302 88 37
3 85 123 220
3 221 124 211
3 309 125 302
3 243 32 242
3 19 243 242
3 35 88 281
3 298 19 297
3 128 58 196
3 5 128 111
3 250 130 68
3 113 197 198
3 207 251 148
3 217 109 68
3 118 255 219
3 320 310 132
3 223 42 141
3 15 270 276
3 275 311 7
3 134 12 180
3 316 29 173
3 136 135 259
3 135 183 242
3 231 33 151
3 299 297 19
3 139 137 38
3 40 165 226
3 284 186 138
3 283 138 35
3 245 4 328
3 137 139 40
3 190 227 140
3 140 246 191
3 228 141 46
3 141 258 223
3 256 312 144
3 67 204 147
3 10 317 169
3 204 229 142
3 66 219 256
3 145 10 230
3 66 144 145
3 34 277 185
3 146 209 208
3 271 272 11
3 147 204 176
3 207 148 340
3 81 297 299
3 313 80 151
3 150 313 151
3 314 152 271
3 231 80 136
3 84 221 222
3 330 292 152
3 340 272 82
3 154 52 247
3 33 153 264
3 196 110 56
3 182 60 117
3 232 114 218
3 233 119 205
3 308 82 122
3 18 276 333
3 17 323 157
3 334 30 158
3 178 20 97
3 336 3 329
3 237 55 167
3 160 12 177
3 21 300 278
3 16 327 161
3 17 326 161
3 337 31 162
3 338 1 162
3 164 315 9
3 309 163 17
3 315 20 163
3 164 9 301
3 40 226 137
3 319 227 165
3 247 166 195
3 238 237 166
3 128 236 53
3 167 195 237
3 59 168 339
3 234 235 166
3 317 145 174
3 10 169 170
3 169 57 235
3 293 294 74
3 291 57 169
3 22 134 316
3 262 25 239
3 262 173 98
3 316 172 22
3 317 65 169
3 145 144 174
3 119 175 72
3 93 8 175
3 147 176 8
3 176 69 255
3 91 21 240
3 134 177 12
3 20 178 158
3 97 13 178
3 25 179 96
3 98 28 179
3 180 132 310
3 12 165 180
3 114 182 61
3 241 97 26
3 60 182 155
3 135 136 183
3 244 183 136
3 36 138 184
3 38 184 138
3 34 185 146
3 297 185 94
3 284 138 36
3 88 186 37
3 4 187 100
3 139 38 187
3 4 188 139
3 246 188 43
3 116 189 44
3 76 287 288
3 42 190 141
3 191 190 140
3 192 101 41
3 191 46 190
3 193 192 41
3 106 46 192
3 214 193 41
3 193 107 304
3 112 50 194
3 268 261 194
3 110 247 49
3 237 195 166
3 196 56 111
3 58 154 196
3 198 197 64
3 113 62 197
3 64 200 249
3 113 198 129
3 116 332 249
3 115 62 199
3 64 117 200
3 171 201 54
3 201 65 312
3 34 202 104
3 146 78 202
3 203 66 216
3 109 131 203
3 142 69 204
3 176 204 69
3 119 72 205
3 72 255 263
3 130 78 251
3 263 71 205
3 71 206 207
3 206 130 251
3 209 146 81
3 148 208 11
3 149 209 81
3 11 208 209
3 210 156 308
3 73 119 210
3 86 211 85
3 211 87 221
3 48 212 101
3 89 41 212
3 90 213 91
3 213 26 273
3 252 214 53
3 89 214 41
3 23 215 99
3 179 215 96
3 203 216 108
3 66 145 216
3 130 217 68
3 118 131 217
3 254 28 98
3 218 254 320
3 118 219 131
3 256 219 69
3 122 86 220
3 85 220 86
3 87 330 222
3 84 124 221
3 257 222 83
3 153 84 222
3 258 141 75
3 27 132 223
3 165 12 226
3 135 7 224
3 136 79 225
3 318 226 12
3 42 165 227
3 319 165 40
3 46 106 228
3 260 228 106
3 67 143 229
3 201 229 143
3 261 10 194
3 290 230 51
3 136 225 231
3 33 231 225
3 232 27 258
3 182 232 155
3 71 207 340
3 210 233 156
3 52 170 234
3 235 234 170
3 169 235 170
3 235 57 238
3 5 236 128
3 168 53 236
3 166 235 238
3 159 55 237
3 57 159 238
3 159 237 238
3 160 177 240
3 262 239 172
3 91 240 177
3 24 181 241
3 97 241 181
3 298 243 19
3 135 242 32
3 281 243 127
3 32 243 126
3 136 80 244
3 299 80 149
3 43 188 245
3 4 245 188
3 191 246 43
3 140 227 319
3 234 247 52
3 49 247 195
3 61 248 99
3 115 199 248
3 64 249 198
3 116 249 200
3 250 68 286
3 78 250 202
3 148 251 78
3 206 251 207
3 168 252 53
3 193 252 107
3 268 253 89
3 92 253 50
3 310 320 29
3 28 254 218
3 263 255 118
3 176 255 72
3 142 256 69
3 66 256 144
3 257 83 314
3 151 33 264
3 258 75 155
3 27 223 258
3 224 259 135
3 79 136 259
3 260 106 304
3 260 105 265
3 51 230 261
3 10 261 230
3 173 262 172
3 25 262 98
3 206 263 118
3 72 263 205
3 222 264 153
3 151 264 257
3 260 265 75
3 303 265 105
3 267 266 48
3 268 266 51
3 267 48 331
3 267 45 290
3 261 268 51
3 268 50 253
3 281 269 126
3 125 269 88
3 17 270 125
3 276 270 157
3 272 271 152
3 149 271 11
3 82 272 152
3 11 272 148
3 213 273 164
3 97 273 26
3 32 126 274
3 274 126 269
3 311 275 133
3 135 275 7
3 18 133 276
3 15 276 133
3 185 277 94
3 277 34 296
3 278 160 240
3 284 278 95
3 279 280 6
3 280 279 90
3 22 280 90
3 35 281 127
3 269 281 88
3 38 138 283
3 39 100 282
3 283 35 285
3 38 283 282
3 301 284 95
3 186 284 37
3 285 39 283
3 298 285 127
3 109 286 68
3 77 104 286
3 105 47 287
3 287 47 288
3 289 288 47
3 288 59 102
3 289 47 304
3 59 289 168
3 230 290 108
3 290 51 266
3 57 291 171
3 169 65 291
3 330 152 83
3 122 292 86
3 294 171 54
3 159 293 74
3 296 295 100
3 171 294 293
3 104 77 295
3 296 100 39
3 104 296 34
3 183 299 19
3 185 297 81
3 285 298 94
3 298 127 243
3 80 299 244
3 81 299 149
3 164 95 300
3 278 300 95
3 9 309 302
3 284 301 37
3 88 302 125
3 37 301 302
3 287 303 105
3 116 303 76
3 304 47 105
3 193 304 106
3 290 305 108
3 306 305 45
3 286 306 77
3 305 306 109
3 267 307 45
3 307 103 328
3 82 308 156
3 70 308 122
3 309 9 315
3 17 125 309
3 316 310 29
3 180 310 134
3 201 312 142
3 133 18 311
3 174 312 65
3 271 313 150
3 149 80 313
3 257 314 150
3 83 152 314
3 20 315 164
3 309 315 163
3 316 134 310
3 172 316 173
3 145 317 10
3 65 317 174
3 12 160 318
3 160 278 321
3 188 319 40
3 140 319 246
3 218 320 27
3 29 320 254
3 226 321 137
3 160 321 318
3 16 163 322
3 158 16 322
3 14 157 323
3 161 14 323
3 161 31 324
3 16 158 325
3 162 16 325
3 16 161 326
3 163 16 326
3 31 161 327
3 162 31 327
3 245 328 103
3 295 328 4
3 211 330 87
3 336 329 159
3 292 330 86
3 267 331 103
3 101 331 48
3 157 14 333
3 116 44 332
3 178 334 158
3 159 335 336
3 159 74 335
3 3 336 335
3 162 1 337
3 162 30 338
3 156 340 82
3 168 5 339
3 340 233 71

CELL_TYPES 616
5
5
5
5
5
5
5
5
5
5
5
5
5
5
5
5
5
5
5
5
5
5
5
5
5
5
5
5
5
5
5
5
5
5
5
5
5
5
5
5
5
5
5
5
5
5
5
5
5
5
5
5
5
5
5
5
5
5
5
5
5
5
5
5
5
5
5
5
5
5
5
5
5
5
5
5
5
5
5
5
5
5
5
5
5
5
5
5
5
5
5
5
5
5
5
5
5
5
5
5
5
5
5
5
5
5
5
5
5
5
5
5
5
5
5
5
5
5
5
5
5
5
5
5
5
5
5
5
5
5
5
5
5
5
5
5
5
5
5
5
5
5
5
5
5
5
5
5
5
5
5
5
5
5
5
5
5
5
5
5
5
5
5
5
5
5
5
5
5
5
5
5
5
5
5
5
5
5
5
5
5
5
5
5
5
5
5
5
5
5
5
5
5
5
5
5
5
5
5
5
5
5
5
5
5
5
5
5
5
5
5
5
5
5
5
5
5
5
5
5
5
5
5
5
5
5
5
5
5
5
5
5
5
5
5
5
5
5
5
5
5
5
5
5
5
5
5
5
5
5
5
5
5
5
5
5
5
5
5
5
5
5
5
5
5
5
5
5
5
5
5
5
5
5
5
5
5
5
5
5
5
5
5
5
5
5
5
5
5
5
5
5
5
5
5
5
5
5
5
5
5
5
5
5
5
5
5
5
5
5
5
5
5
5
5
5
5
5
5
5
5
5
5
5
5
5
5
5
5
5
5
5
5
5
5
5
5
5
5
5
5
5
5
5
5
5
5
5
5
5
5
5
5
5
5
5
5
5
5
5
5
5
5
5
5
5
5
5
5
5
5
5
5
5
5
5
5
5
5
5
5
5
5
5
5
5
5
5
5
5
5
5
5
5
5
5
5
5
5
5
5
5
5
5
5
5
5
5
5
5
5
5
5
5
5
5
5
5
5
5
5
5
5
5
5
5
5
5
5
5
5
5
5
5
5
5
5
5
5
5
5
5
5
5
5
5
5
5
5
5
5
5
5
5
5
5
5
5
5
5
5
5
5
5
5
5
5
5
5
5
5
5
5
5
5
5
5
5
5
5
5
5
5
5
5
5
5
5
5
5
5
5
5
5
5
5
5
5
5
5
5
5
5
5
5
5
5
5
5
5
5
5
5
5
5
5
5
5
5
5
5
5
5
5
5
5
5
5
5
5
5
5
5
5
5
5
5
5
5
5
5
5
5
5
5
5
5
5
5
5
5
5
5
5
5
5
5
5
5
5
5
5
5
5
5
5
5
5
5
5
5
5
5
5
5
5
5
5
5
5
5
5
5
5
5
5
5
5
5
5
5
5
5
5
5
5
5
5
5
5
5
5
5
5
5
5
5
5
5
5
5
5
5
5
5
5

POINT_DATA 341
SCALARS pressure float 1
LOOKUP_TABLE default
0
0
0
0
0
0
0
0
0
0
0
0
0
0
0
0
0
0
0
0
0
0
0
0
0
0
0
0
0
0
0
0
0
0
0
0
0
0
0
0
0
0
0
0
0
0
0
0
0
0
0
0
0
0
0
0
0
0
0
0
0
0
0
0
0
0
0
0
0
0
0
0
0
0
0
0
0
0
0
0
0
0
0
0
0
0
0
0
0
0
0
0
0
0
0
0
0
0
0
0
0
0
0
0
0
0
0
0
0
0
0
0
0
0
0
0
0
0
0
0
0
0
0
0
0
0
0
0
0
0
0
0
0
0
0
0
0
0
0
0
0
0
0
0
0
0
0
0
0
0
0
0
0
0
0
0
0
0
0
0
0
0
0
0
0
0
0
0
0
0
0
0
0
0
0
0
0
0
0
0
0
0
0
0
0
0
0
0
0
0
0
0
0
0
0
0
0
0
0
0
0
0
0
0
0
0
0
0
0
0
0
0
0
0
0
0
0
0
0
0
0
0
0
0
0
0
0
0
0
0
0
0
0
0
0
0
0
0
0
0
0
0
0
0
0
0
0
0
0
0
0
0
0
0
0
0
0
0
0
0
0
0
0
0
0
0
0
0
0
0
0
0
0
0
0
0
0
0
0
0
0
0
0
0
0
0
0
0
0
0
0
0
0
0
0
0
0
0
0
0
0
0
0
0
0
0
0
0
0
0
0
0
0
0
0
0
0
0
0
0
0
0
0
0
0
0
0
0
0
0
0
0
0
0
0
0
0
0
0
0
0
VECTORS displacement float
0 0 0
0 3 0
2 3 0
2 0 0
0.499895 0.748948 0
0.5 0 0
0 0.75 0
0.5 3 0
2 0.75 0
0.125949 1.68872 0
1.12488 0.186237 0
1.12591 1.68613 0
0.125456 0.750615 0
0 1.6875 0
0.125 3 0
0.281052 2.29741 0
0.030999 2.29658 0
0.125171 2.29636 0
0.28125 3 0
0.633786 1.98008 0
0.0306747 1.68704 0
0.070739 1.17187 0
0.0309605 0.79822 0
0 0.1875 0
0 1.17187 0
0 0.421875 0
0.0189583 1.29175 0
0.0708434 0.292831 0
0.0145079 0.292242 0
0.0368664 0.500009 0
0 2.29688 0
0.03125 3 0
0.468955 2.37986 0
1.125 3 0
0.74263 1.2311 0
0.3543 1.48338 0
0.206982 1.13098 0
0.219181 1.49332 0
0.37301 1.04695 0
0.51943 1.28379 0
0.280783 0.682609 0
0.464018 0.187491 0
0.171482 0.436899 0
0.418923 0.427718 0
0.125 0 0
0.807934 0.446719 0
0.279326 0.261723 0
0.268348 0.0492888 0
0.603916 0.323442 0
1.125 0 0
0.758828 0.123567 0
0.873059 0.252932 0
1.0327 0.0485676 0
0.526259 0.0513665 0
2 0.1875 0
1.53125 0 0
0.78125 0 0
1.5122 0.0701475 0
0.749955 0.0343319 0
0.28125 0 0
0.0866433 0.0699558 0
0.0225098 0.119802 0
0 0.046875 0
0.03125 0 0
0.0197284 0.0305295 0
1.53166 0.238581 0
1.21586 0.459545 0
2 0.421875 0
0.985177 0.814812 0
1.59895 0.573808 0
2 1.6875 0
1.48686 1.12514 0
1.65959 0.845471 0
2 1.17188 0
2 0.046875 0
0.152641 0.177393 0
0.153632 0.0276139 0
0.729159 0.705681 0
1.05515 1.21131 0
0.78125 3 0
0.944758 2.29794 0
0.827342 1.65214 0
1.53053 1.63018 0
1.3954 2.32203 0
1.53125 3 0
2 2.29687 0
1.67835 2.0464 0
1.6903 2.53192 0
0.285678 1.84049 0
0.621578 0.190108 0
0.0087322 0.997059 0
0.0366463 1.01646 0
0.656253 0.0711232 0
2 0.949219 0
0.647231 1.51566 0
0.135791 1.33145 0
0 0.292969 0
0.00773165 1.54976 0
0.0103216 0.437608 0
0.00795077 0.189625 0
0.516784 0.999401 0
0.467552 0.299642 0
0.195313 0 0
0.586384 0.526112 0
0.794876 0.946382 0
0.177149 0.0847942 0
0.274798 0.13343 0
0.384865 0.0809349 0
1.00606 0.37713 0
0.982516 0.572837 0
0.945312 0 0
0.632812 0 0
0.863554 0.0688704 0
0 0.0117187 0
0.0364094 0.208747 0
0.00672406 0.0689475 0
0.0652617 0.0136766 0
0.0395586 0.0652138 0
1.2999 0.822445 0
1.74135 1.0774 0
2 1.41797 0
2 2.63672 0
1.75169 1.7452 0
2 1.98047 0
1.75781 3 0
0.195234 2.05241 0
0.382778 2.07247 0
0.486343 1.72151 0
0.60709 0.013873 0
0.0078125 0 0
1.13279 0.974018 0
1.17973 0.644024 0
0.0920981 0.452187 0
0.356103 2.63625 0
0.0673334 0.652939 0
0.632076 2.62383 0
0.808057 2.57867 0
0.268701 0.915916 0
0.296627 1.24 0
0.372965 0.809241 0
0.282808 0.432582 0
0.182055 0.287291 0
1.6833 0.37995 0
2 0.292969 0
1.42228 0.369859 0
1.20515 0.303573 0
0.896992 1.37417 0
2 0.574219 0
1.29151 1.38347 0
0.959918 1.9169 0
1.16288 2.13081 0
1.13108 2.5426 0
1.37477 1.92414 0
1.32031 3 0
0.911182 0.0145776 0
0.0805436 0.157582 0
1.70531 1.37279 0
0.195085 2.63702 0
0.0076451 1.98015 0
1.69711 0.0173954 0
0.126864 1.00368 0
0.0700263 2.63632 0
0.00745469 2.63614 0
0.0701301 1.98032 0
0.0699446 1.48204 0
0.187386 0.615375 0
1.29667 0.020478 0
1.32031 0 0
0.386007 0.0136987 0
1.36007 0.145672 0
1.17172 0.0973192 0
1.70931 0.139781 0
0.00933546 0.636934 0
0.0169073 0.533813 0
1.36684 0.271125 0
1.84616 0.847084 0
1.78658 0.666455 0
0.0740559 0.873955 0
0.00428992 1.75939 0
0.00517738 0.348841 0
0.122653 0.578059 0
0 1.41797 0
0.0490973 0.118849 0
0.702967 2.29219 0
0.269247 1.07924 0
0.766867 1.44632 0
0.2819 1.4283 0
0.433095 0.925527 0
0.388714 0.601047 0
0.157652 0.00642937 0
0.238264 0.342605 0
0.359435 0.320063 0
0.361956 0.21724 0
0.384929 0.140974 0
0.981275 0.122531 0
1.22173 0.00585871 0
0.785628 0.00875014 0
0.00526179 0.0275425 0
0.0117217 0.00817194 0
0 0.105469 0
0.0421393 0.0320659 0
1.77263 0.235845 0
0.890532 1.13094 0
1.11145 0.536052 0
1.80274 0.495781 0
1.59135 0.99316 0
1.31344 1.0219 0
1.33675 1.20023 0
1.05607 1.44981 0
0.972289 1.64319 0
1.82589 1.23235 0
1.86109 2.46148 0
0.54059 0.240826 0
0.038356 1.20014 0
0.539366 0.111588 0
0.0042695 0.256669 0
1.13485 0.381604 0
1.13781 0.792621 0
0.0367093 0.298858 0
1.37291 0.570523 0
1.82871 1.93676 0
1.64384 2.79257 0
1.42984 2.66614 0
0.125843 0.346783 0
0.632812 3 0
0.945312 3 0
0.211709 0.780025 0
0.225127 0.50737 0
0.216708 0.205388 0
1.85834 0.354731 0
1.04636 0.269201 0
0.964672 2.61599 0
0.0646755 0.215839 0
1.63189 1.2075 0
1.19771 0.0496432 0
1.33195 0.075883 0
0.491325 0.0164626 0
1.42284 0.00756536 0
1.47664 0.0296653 0
0 0.574219 0
0.0855078 1.01956 0
0.00405188 1.29185 0
0.575487 2.23931 0
0.507936 1.99096 0
0.819748 2.32287 0
0.476425 0.533215 0
0.349105 0.492581 0
1.07401 0.0145161 0
0.00491936 0.122431 0
0.0314821 0.00834729 0
0.981302 0.985427 0
1.19199 1.13627 0
0.471498 0.0807581 0
0.642231 0.125689 0
0.0270773 0.393584 0
1.48024 0.724393 0
1.48677 0.475788 0
1.28791 2.52561 0
0.113173 0.241906 0
0.726585 2.76394 0
0.206852 0.133335 0
0.974399 0.193875 0
0.00558249 0.531274 0
1.45868 0.877759 0
1.22111 2.77823 0
0.121576 0.115213 0
0.720577 0.263372 0
0.713791 0.363306 0
0.784997 0.190436 0
0.302934 2.06468 0
0.204667 2.33633 0
1.21073 1.88683 0
1.31999 1.6465 0
0.0348225 1.45064 0
0.37143 2.34791 0
0.456965 2.69279 0
0.269834 2.68064 0
0.630283 1.30475 0
0.14997 1.15521 0
0 0.949219 0
0.00630695 0.807689 0
0.379887 1.78906 0
0.454009 1.14141 0
0.382163 1.27768 0
0.188593 1.31198 0
0.528503 1.50415 0
0.842652 0.78768 0
0.200557 0.04677 0
0.239088 0.0121467 0
0.306801 0.0199371 0
0.871928 0.348712 0
1.53137 0.160125 0
1.54791 1.86586 0
1.75668 0.0667702 0
2 0.105469 0
0.620902 0.852843 0
0.64542 1.05966 0
0.698011 1.74664 0
0.587737 1.6997 0
0.785868 1.99899 0
0.0922276 1.32541 0
0.157333 1.51609 0
0.19331 1.75597 0
0.131492 0.0570535 0
0.304527 0.0829544 0
0.930271 0.466212 0
0.82779 0.588145 0
0.707506 0.529471 0
1.83089 1.53575 0
0.126792 1.98042 0
0.0651678 0.530683 0
0.382813 3 0
1.55547 0.322012 0
1.0284 2.11375 0
1.30666 2.12982 0
0.0761193 1.72339 0
0.0326946 0.63947 0
1.27228 0.205697 0
0.162884 0.874031 0
0.285381 0.554909 0
0.056303 0.392939 0
0.206738 0.964058 0
0.0314685 1.98107 0
0.125588 2.63749 0
0.0703125 3 0
0.00815906 2.29753 0
0.0707001 2.29737 0
0.0316595 2.63717 0
0.603082 0.67444 0
1.75781 0 0
1.58009 2.28725 0
0.527317 0.412712 0
0.0703125 0 0
0.195313 3 0
0 1.98047 0
2 0.0117188 0
1.82708 0.00827139 0
0.0078125 3 0
0 2.63672 0
0.382813 0 0
1.49048 1.38222 0
VECTORS displacementExact float
0 0 0
0 3 0
2 3 0
2 0 0
0.5 0.75 0
0.5 0 0
0 0.75 0
0.5 3 0
2 0.75 0
0.125 1.6875 0
1.125 0.1875 0
1.125 1.6875 0
0.125 0.75 0
0 1.6875 0
0.125 3 0
0.28125 2.29688 0
0.03125 2.29688 0
0.125 2.29688 0
0.28125 3 0
0.632813 1.98047 0
0.03125 1.6875 0
0.0703125 1.17188 0
0.03125 0.797607 0
0 0.1875 0
0 1.17188 0
0 0.421875 0
0.0175781 1.29199 0
0.0703125 0.292969 0
0.0138889 0.292969 0
0.0366753 0.498541 0
0 2.29688 0
0.03125 3 0
0.469238 2.37964 0
1.125 3 0
0.742676 1.2312 0
0.355957 1.48315 0
0.206633 1.1304 0
0.217951 1.49197 0
0.373429 1.04597 0
0.519735 1.28439 0
0.28125 0.682318 0
0.463789 0.1875 0
0.171411 0.436813 0
0.419554 0.427332 0
0.125 0 0
0.806978 0.445156 0
0.278672 0.262633 0
0.266488 0.0473983 0
0.602671 0.323407 0
1.125 0 0
0.758363 0.123244 0
0.872168 0.252708 0
1.03281 0.046875 0
0.527434 0.0481427 0
2 0.1875 0
1.53125 0 0
0.78125 0 0
1.51231 0.0707192 0
0.749147 0.0305801 0
0.28125 0 0
0.0863891 0.0712095 0
0.0211503 0.11963 0
0 0.046875 0
0.03125 0 0
0.0192428 0.0288643 0
1.53125 0.239593 0
1.2162 0.460148 0
2 0.421875 0
0.984521 0.814133 0
1.59847 0.574219 0
2 1.6875 0
1.48725 1.12487 0
1.65779 0.845126 0
2 1.17188 0
2 0.046875 0
0.151175 0.177438 0
0.153997 0.0244766 0
0.728346 0.705227 0
1.05507 1.21105 0
0.78125 3 0
0.945313 2.29688 0
0.827488 1.65253 0
1.53125 1.631 0
1.39444 2.31991 0
1.53125 3 0
2 2.29688 0
1.67859 2.04471 0
1.68764 2.53146 0
0.285461 1.8413 0
0.622466 0.191253 0
0.00929084 0.998019 0
0.0366448 1.01704 0
0.656876 0.0705297 0
2 0.949219 0
0.645865 1.5155 0
0.13348 1.33041 0
0 0.292969 0
0.0078125 1.5498 0
0.00981504 0.436854 0
0.0082609 0.189175 0
0.516739 0.998586 0
0.467978 0.300107 0
0.195313 0 0
0.585277 0.526351 0
0.796004 0.946886 0
0.176864 0.0837837 0
0.274655 0.133207 0
0.385499 0.0802521 0
1.00548 0.375836 0
0.982165 0.573538 0
0.945313 0 0
0.632813 0 0
0.863079 0.0677133 0
0 0.0117188 0
0.0366753 0.208161 0
0.00715482 0.0682122 0
0.0664999 0.014064 0
0.0405113 0.0647693 0
1.2996 0.824396 0
1.74089 1.07647 0
2 1.41797 0
2 2.63672 0
1.75055 1.74564 0
2 1.98047 0
1.75781 3 0
0.195313 2.0531 0
0.382077 2.07203 0
0.484995 1.72136 0
0.606977 0.0140023 0
0.0078125 0 0
1.13214 0.974214 0
1.1803 0.642646 0
0.0907731 0.452356 0
0.355957 2.63672 0
0.0665083 0.653342 0
0.632813 2.62418 0
0.808065 2.57906 0
0.268307 0.915558 0
0.297058 1.24043 0
0.372839 0.809654 0
0.28179 0.429819 0
0.182932 0.288293 0
1.68318 0.380247 0
2 0.292969 0
1.41962 0.368138 0
1.20585 0.304105 0
0.896727 1.37488 0
2 0.574219 0
1.29182 1.3837 0
0.95969 1.9175 0
1.16216 2.12799 0
1.13147 2.54361 0
1.37501 1.92519 0
1.32031 3 0
0.911616 0.0144697 0
0.0812792 0.156756 0
1.70403 1.37161 0
0.195313 2.63672 0
0.0078125 1.98047 0
1.6983 0.0184904 0
0.12607 1.00454 0
0.0703125 2.63672 0
0.0078125 2.63672 0
0.0703125 1.98047 0
0.0703125 1.48315 0
0.187277 0.616423 0
1.29681 0.0193493 0
1.32031 0 0
0.386582 0.014915 0
1.35979 0.145302 0
1.17074 0.0969504 0
1.70884 0.139811 0
0.00935925 0.636319 0
0.0169294 0.533112 0
1.36386 0.27114 0
1.84577 0.84668 0
1.78731 0.667146 0
0.0733059 0.872889 0
0.00439453 1.75854 0
0.00347222 0.347449 0
0.121734 0.578501 0
0 1.41797 0
0.0491032 0.118616 0
0.702672 2.29102 0
0.268676 1.0789 0
0.7667 1.44705 0
0.282261 1.42849 0
0.432588 0.923506 0
0.389352 0.601529 0
0.158203 0.00476069 0
0.237816 0.34261 0
0.360513 0.321528 0
0.362072 0.216081 0
0.386612 0.141169 0
0.982026 0.123226 0
1.2207 0.0042542 0
0.785684 0.00796991 0
0.00390064 0.0263672 0
0.0111706 0.00782185 0
0 0.105469 0
0.0425424 0.0295767 0
1.77246 0.237305 0
0.889434 1.13024 0
1.10988 0.535525 0
1.80246 0.495117 0
1.59071 0.991039 0
1.31307 1.02162 0
1.33643 1.19854 0
1.05564 1.44944 0
0.971752 1.64355 0
1.82487 1.23301 0
1.85998 2.46387 0
0.538134 0.238506 0
0.0380162 1.19964 0
0.53909 0.112849 0
0.00347222 0.255419 0
1.13491 0.380508 0
1.13742 0.792317 0
0.0366753 0.298789 0
1.37205 0.570487 0
1.82646 1.93642 0
1.64258 2.78997 0
1.43037 2.66648 0
0.12404 0.345219 0
0.632813 3 0
0.945313 3 0
0.211678 0.77857 0
0.224718 0.506317 0
0.216846 0.20262 0
1.8574 0.354492 0
1.04683 0.269266 0
0.964466 2.61568 0
0.0649071 0.215674 0
1.63107 1.20733 0
1.19709 0.047171 0
1.3305 0.076668 0
0.490766 0.0163852 0
1.42383 0.00562732 0
1.47615 0.0287226 0
0 0.574219 0
0.0844745 1.01948 0