# vtk DataFile Version 3.0
2D scalar data
ASCII
DATASET UNSTRUCTURED_GRID
POINTS 201 float
0.000000 0.000000 0
4000.000000 0.000000 0
4000.000000 200.000000 0
0.000000 200.000000 0
2048.000000 0.000000 0
2000.000000 200.000000 0
3000.000000 200.000000 0
1024.000000 0.000000 0
2500.000000 200.000000 0
3024.000000 0.000000 0
1000.000000 200.000000 0
1536.000000 0.000000 0
2536.000000 0.000000 0
1500.000000 200.000000 0
2250.000000 200.000000 0
2292.000000 0.000000 0
3500.000000 200.000000 0
3512.000000 0.000000 0
512.000000 200.000000 0
512.000000 0.000000 0
1792.000000 0.000000 0
1750.000000 200.000000 0
2750.000000 200.000000 0
2780.000000 0.000000 0
1250.000000 200.000000 0
1280.000000 0.000000 0
2125.000000 200.000000 0
2062.500000 109.240000 0
2062.500000 200.000000 0
1920.000000 0.000000 0
2170.000000 0.000000 0
1984.000000 64.077387 0
1875.000000 200.000000 0
1886.446550 97.512974 0
1954.307268 136.475657 0
1812.500000 200.000000 0
1781.250000 102.152500 0
1856.000000 0.000000 0
1664.000000 0.000000 0
1625.000000 200.000000 0
1835.563344 138.720178 0
1832.133916 60.961387 0
1728.000000 0.000000 0
1687.500000 126.125114 0
1581.293042 99.647097 0
1722.527810 67.807856 0
2187.500000 109.000000 0
2109.000000 0.000000 0
1562.500000 200.000000 0
1408.000000 0.000000 0
1600.000000 0.000000 0
1645.408415 68.715890 0
2187.500000 200.000000 0
2125.045981 133.068669 0
2231.000000 0.000000 0
2291.755728 104.358703 0
2237.812377 65.898747 0
2414.000000 0.000000 0
2375.000000 200.000000 0
2353.000000 0.000000 0
2312.500000 200.000000 0
1472.000000 89.207380 0
1375.000000 200.000000 0
2475.000000 92.260000 0
1472.000000 0.000000 0
1529.648048 63.004354 0
1522.740575 135.318450 0
1344.000000 92.162500 0
1437.500000 200.000000 0
2475.000000 0.000000 0
2437.500000 200.000000 0
2384.024149 108.097838 0
1344.000000 0.000000 0
1407.474849 67.938191 0
1312.500000 200.000000 0
1239.798554 96.219783 0
1293.524763 135.937794 0
1125.000000 200.000000 0
1152.000000 0.000000 0
1187.500000 200.000000 0
1216.000000 0.000000 0
1062.500000 106.060000 0
1062.500000 200.000000 0
768.000000 0.000000 0
756.000000 200.000000 0
1088.000000 0.000000 0
1151.882632 114.353297 0
896.000000 0.000000 0
960.000000 83.249923 0
960.000000 0.000000 0
1002.513977 133.911398 0
878.000000 200.000000 0
855.727941 97.185515 0
914.292485 138.318615 0
817.000000 200.000000 0
832.000000 0.000000 0
755.356327 99.601380 0
806.479448 137.335919 0
634.000000 200.000000 0
640.000000 0.000000 0
695.000000 200.000000 0
704.000000 0.000000 0
573.000000 100.000000 0
573.000000 200.000000 0
256.000000 0.000000 0
256.000000 200.000000 0
576.000000 0.000000 0
664.153741 88.628006 0
384.000000 200.000000 0
384.000000 0.000000 0
460.532787 100.000000 0
320.000000 100.000000 0
516.766393 65.697500 0
516.766393 134.302500 0
448.000000 200.000000 0
448.000000 0.000000 0
320.000000 200.000000 0
209.875000 100.000000 0
320.000000 0.000000 0
390.266393 74.490492 0
264.937500 64.760000 0
264.937500 135.240000 0
128.000000 200.000000 0
128.000000 0.000000 0
0.000000 72.000000 0
192.000000 200.000000 0
192.000000 0.000000 0
64.000000 136.000000 0
64.000000 0.000000 0
138.731314 125.268686 0
92.371451 68.000000 0
3250.000000 200.000000 0
3268.000000 0.000000 0
3750.000000 200.000000 0
3756.000000 0.000000 0
2625.000000 200.000000 0
2562.500000 128.726993 0
2536.917300 66.902331 0
2658.000000 0.000000 0
2663.086371 103.561751 0
2597.000000 0.000000 0
2605.095693 67.700742 0
2719.000000 0.000000 0
2687.500000 200.000000 0
2764.141473 99.871221 0
2712.207581 63.207663 0
2902.000000 0.000000 0
2875.000000 200.000000 0
2841.000000 0.000000 0
2871.500000 97.705000 0
2812.500000 200.000000 0
2963.000000 72.655018 0
2817.060009 61.086211 0
2818.558101 135.332073 0
3125.000000 200.000000 0
3071.276830 101.627701 0
2937.500000 200.000000 0
2930.150815 132.302778 0
3146.000000 0.000000 0
3062.500000 200.000000 0
3005.872003 129.246240 0
3187.500000 105.460000 0
3085.000000 0.000000 0
3187.500000 200.000000 0
3128.374226 134.301442 0
3207.000000 0.000000 0
3293.777044 103.129934 0
3241.372539 137.774334 0
3239.708112 61.857897 0
3390.000000 0.000000 0
3375.000000 200.000000 0
3329.000000 0.000000 0
3312.500000 200.000000 0
3451.000000 96.700000 0
3451.000000 0.000000 0
3625.000000 200.000000 0
3437.500000 200.000000 0
3373.170960 119.046931 0
3562.500000 107.081849 0
3634.000000 0.000000 0
3562.500000 200.000000 0
3503.668261 134.988482 0
3510.057866 66.364786 0
3687.500000 102.610000 0
3687.500000 200.000000 0
3625.966808 131.870772 0
3695.000000 0.000000 0
3796.654765 101.309643 0
3742.483782 136.073853 0
3741.632052 64.577786 0
3878.000000 0.000000 0
3875.000000 200.000000 0
4000.000000 128.000000 0
3817.000000 0.000000 0
3812.500000 200.000000 0
3899.207463 100.340612 0
3848.308338 140.746828 0
3847.534491 58.850484 0
3939.000000 0.000000 0
3936.000000 200.000000 0
4000.000000 64.000000 0

CELLS 275 1100
3 27 28 5
3 155 159 160
3 96 83 95
3 181 178 180
3 126 104 120
3 27 31 4
3 22 144 153
3 8 63 136
3 72 49 73
3 78 80 86
3 55 14 46
3 20 36 45
3 47 46 53
3 71 58 60
3 194 188 187
3 172 167 166
3 112 110 115
3 7 81 88
3 33 29 31
3 45 51 38
3 139 135 136
3 151 157 149
3 75 25 67
3 50 65 11
3 34 33 31
3 26 53 52
3 55 46 56
3 5 34 27
3 53 28 27
3 29 4 31
3 47 30 46
3 40 36 41
3 36 35 21
3 32 33 34
3 37 29 33
3 27 34 31
3 32 34 5
3 64 11 65
3 32 35 40
3 20 37 41
3 21 43 36
3 41 37 33
3 43 21 39
3 32 40 33
3 35 36 40
3 40 41 33
3 20 41 36
3 44 43 39
3 42 20 45
3 45 38 42
3 66 48 13
3 51 50 38
3 36 43 45
3 45 43 51
3 53 26 28
3 56 15 55
3 43 44 51
3 27 4 47
3 44 39 48
3 68 62 73
3 65 50 44
3 50 51 44
3 47 53 27
3 46 14 52
3 52 53 46
3 69 12 137
3 30 54 56
3 60 14 55
3 30 56 46
3 15 56 54
3 66 61 65
3 57 63 71
3 57 71 59
3 55 15 59
3 71 60 55
3 67 76 75
3 8 136 135
3 62 67 73
3 71 70 58
3 66 65 44
3 73 64 61
3 64 65 61
3 48 66 44
3 68 66 13
3 73 49 64
3 76 24 75
3 59 71 55
3 66 68 61
3 63 57 69
3 63 8 70
3 70 71 63
3 68 73 61
3 67 25 72
3 72 73 67
3 82 10 90
3 62 74 76
3 80 25 75
3 62 76 67
3 24 76 74
3 7 88 89
3 79 77 86
3 75 79 86
3 75 24 79
3 86 80 75
3 86 85 78
3 92 87 88
3 81 77 82
3 99 107 102
3 77 81 86
3 81 7 85
3 86 81 85
3 81 90 88
3 93 92 88
3 92 97 96
3 82 90 81
3 88 87 89
3 93 10 91
3 97 84 96
3 93 90 10
3 95 87 92
3 90 93 88
3 91 92 93
3 103 18 113
3 91 94 97
3 96 95 92
3 101 83 96
3 91 97 92
3 84 97 94
3 106 99 102
3 100 98 107
3 107 98 102
3 96 84 100
3 107 101 96
3 112 113 110
3 116 105 121
3 102 98 103
3 120 117 126
3 101 107 99
3 112 106 102
3 107 96 100
3 118 119 111
3 115 19 112
3 114 108 110
3 108 111 119
3 109 119 118
3 120 121 117
3 106 112 19
3 113 112 102
3 103 113 102
3 114 113 18
3 123 117 130
3 113 114 110
3 119 115 110
3 111 108 116
3 129 130 117
3 115 119 109
3 120 118 111
3 108 119 110
3 118 120 104
3 121 120 111
3 116 121 111
3 125 121 105
3 122 3 127
3 125 122 129
3 117 125 129
3 130 124 128
3 121 125 117
3 117 123 126
3 3 124 127
3 122 127 129
3 124 0 128
3 129 127 130
3 124 130 127
3 123 130 128
3 164 158 161
3 177 170 172
3 196 195 191
3 184 175 185
3 63 137 136
3 136 137 141
3 141 140 138
3 69 137 63
3 139 145 144
3 145 23 144
3 138 139 141
3 143 135 139
3 136 141 139
3 137 12 140
3 137 140 141
3 151 149 146
3 138 142 145
3 144 143 139
3 143 144 22
3 138 145 139
3 23 145 142
3 146 9 151
3 148 146 149
3 152 149 153
3 23 148 152
3 147 150 153
3 155 151 9
3 153 144 152
3 157 147 149
3 23 152 144
3 148 149 152
3 147 153 149
3 22 153 150
3 166 167 168
3 154 164 163
3 160 159 6
3 157 151 160
3 6 156 157
3 147 157 156
3 157 160 6
3 155 162 158
3 164 159 155
3 151 155 160
3 164 154 159
3 168 165 132
3 158 164 155
3 155 9 162
3 167 163 161
3 163 164 161
3 174 17 182
3 161 158 165
3 131 167 172
3 163 167 131
3 168 167 161
3 165 168 161
3 132 166 168
3 181 180 16
3 171 169 177
3 177 169 173
3 166 132 171
3 177 172 166
3 177 176 170
3 177 166 171
3 173 169 174
3 183 185 179
3 181 176 173
3 176 177 173
3 182 178 181
3 188 189 187
3 176 181 16
3 182 179 178
3 185 180 178
3 182 181 173
3 174 182 173
3 179 182 17
3 185 175 180
3 189 186 134
3 179 185 178
3 188 184 183
3 184 185 183
3 195 199 191
3 183 179 186
3 133 188 194
3 184 188 133
3 189 188 183
3 186 189 183
3 193 189 134
3 195 198 200
3 193 190 197
3 196 197 195
3 195 200 192
3 189 193 187
3 196 194 187
3 199 195 192
3 194 196 191
3 197 196 187
3 193 197 187
3 190 195 197
3 195 190 198
3 192 2 199
3 198 1 200

CELL_TYPES 275
5
5
5
5
5
5
5
5
5
5
5
5
5
5
5
5
5
5
5
5
5
5
5
5
5
5
5
5
5
5
5
5
5
5
5
5
5
5
5
5
5
5
5
5
5
5
5
5
5
5
5
5
5
5
5
5
5
5
5
5
5
5
5
5
5
5
5
5
5
5
5
5
5
5
5
5
5
5
5
5
5
5
5
5
5
5
5
5
5
5
5
5
5
5
5
5
5
5
5
5
5
5
5
5
5
5
5
5
5
5
5
5
5
5
5
5
5
5
5
5
5
5
5
5
5
5
5
5
5
5
5
5
5
5
5
5
5
5
5
5
5
5
5
5
5
5
5
5
5
5
5
5
5
5
5
5
5
5
5
5
5
5
5
5
5
5
5
5
5
5
5
5
5
5
5
5
5
5
5
5
5
5
5
5
5
5
5
5
5
5
5
5
5
5
5
5
5
5
5
5
5
5
5
5
5
5
5
5
5
5
5
5
5
5
5
5
5
5
5
5
5
5
5
5
5
5
5
5
5
5
5
5
5
5
5
5
5
5
5
5
5
5
5
5
5
5
5
5
5
5
5
5
5
5
5
5
5
5
5
5
5
5
5
5
5
5
5
5
5
5
5
5
5
5
5

POINT_DATA 201
SCALARS pressure float 1
LOOKUP_TABLE default
5e+07
3.5e+07
3.5e+07
5e+07
4.232e+07
4.25e+07
3.875e+07
4.616e+07
4.062e+07
3.866e+07
4.625e+07
4.424e+07
4.049e+07
4.438e+07
4.156e+07
4.141e+07
3.687e+07
3.683e+07
4.808e+07
4.808e+07
4.328e+07
4.344e+07
3.969e+07
3.958e+07
4.531e+07
4.52e+07
4.203e+07
4.227e+07
4.227e+07
4.28e+07
4.186e+07
4.256e+07
4.297e+07
4.293e+07
4.267e+07
4.32e+07
4.332e+07
4.304e+07
4.376e+07
4.391e+07
4.312e+07
4.313e+07
4.352e+07
4.367e+07
4.407e+07
4.354e+07
4.18e+07
4.209e+07
4.414e+07
4.472e+07
4.4e+07
4.383e+07
4.18e+07
4.203e+07
4.163e+07
4.141e+07
4.161e+07
4.095e+07
4.109e+07
4.118e+07
4.133e+07
4.448e+07
4.484e+07
4.072e+07
4.448e+07
4.426e+07
4.429e+07
4.496e+07
4.461e+07
4.072e+07
4.086e+07
4.106e+07
4.496e+07
4.472e+07
4.508e+07
4.535e+07
4.515e+07
4.578e+07
4.568e+07
4.555e+07
4.544e+07
4.602e+07
4.602e+07
4.712e+07
4.717e+07
4.592e+07
4.568e+07
4.664e+07
4.64e+07
4.64e+07
4.624e+07
4.671e+07
4.679e+07
4.657e+07
4.694e+07
4.688e+07
4.717e+07
4.698e+07
4.762e+07
4.76e+07
4.739e+07
4.736e+07
4.785e+07
4.785e+07
4.904e+07
4.904e+07
4.784e+07
4.751e+07
4.856e+07
4.856e+07
4.827e+07
4.88e+07
4.806e+07
4.806e+07
4.832e+07
4.832e+07
4.88e+07
4.921e+07
4.88e+07
4.854e+07
4.901e+07
4.901e+07
4.952e+07
4.952e+07
5e+07
4.928e+07
4.928e+07
4.976e+07
4.976e+07
4.948e+07
4.965e+07
3.781e+07
3.774e+07
3.594e+07
3.592e+07
4.016e+07
4.039e+07
4.049e+07
4.003e+07
4.001e+07
4.026e+07
4.023e+07
3.98e+07
3.992e+07
3.963e+07
3.983e+07
3.912e+07
3.922e+07
3.935e+07
3.923e+07
3.945e+07
3.889e+07
3.944e+07
3.943e+07
3.828e+07
3.848e+07
3.898e+07
3.901e+07
3.82e+07
3.852e+07
3.873e+07
3.805e+07
3.843e+07
3.805e+07
3.827e+07
3.797e+07
3.765e+07
3.784e+07
3.785e+07
3.729e+07
3.734e+07
3.752e+07
3.758e+07
3.706e+07
3.706e+07
3.641e+07
3.711e+07
3.735e+07
3.664e+07
3.637e+07
3.664e+07
3.686e+07
3.684e+07
3.617e+07
3.617e+07
3.64e+07
3.614e+07
3.576e+07
3.597e+07
3.597e+07
3.546e+07
3.547e+07
3.5e+07
3.569e+07
3.57e+07
3.538e+07
3.557e+07
3.557e+07
3.523e+07
3.524e+07
3.5e+07
